<?xml version="1.0" encoding="utf-8"?>
<VTKFile type="UnstructuredGrid" version="1.0" byte_order="LittleEndian" header_type="UInt64">
  <UnstructuredGrid>
    <Piece NumberOfPoints="721" NumberOfCells="1350">
      <Points>
        <DataArray type="Float64" Name="Points" NumberOfComponents="3" format="ascii">
 0.0 0.0 0.7746918366820019 2.5 0.0 0.45946806207717483 5.0 0.0 -1.351897604345842e-6 3.535533905932737 3.535533905932737 -7.625814493550825e-7 0.0 5.0 -1.3518970819549151e-6 0.0 2.5 0.4594680618050628 2.0 2.0 0.38492226819434683 0.1666666666665221 0.0 0.7731209933650625 0.3333333333330261 0.0 0.7683707816800871 0.499999999999206 0.0 0.7605304111971699 0.6666666666653859 0.0 0.7495758322794038 0.8333333333315658 0.0 0.7356503033332402 0.9999999999977542 0.0 0.7187548417319094 1.16666666666464 0.0 0.6990980837577736 1.33333333333156 0.0 0.6766902395996129 1.49999999999848 0.0 0.6518154822164972 1.6666666666654 0.0 0.6244720525206223 1.83333333333232 0.0 0.5950374938024727 1.99999999999924 0.0 0.5635027847613397 2.16666666666616 0.0 0.5303068058510125 2.33333333333308 0.0 0.49542129978363697 2.666666666666667 0.0 0.4222896578397285 2.833333333333334 0.0 0.38460503408661495 3.000000000000001 0.0 0.3464238229693235 3.166666666666668 0.0 0.308305509088615 3.333333333333335 0.0 0.2704382577057968 3.500000000000001 0.0 0.23331627249074197 3.666666666666667 0.0 0.19723990936941246 3.833333333333334 0.0 0.16265767540024278 4.000000000000001 0.0 0.12997495301816137 4.166666666666668 0.0 0.0996111319311638 4.333333333333334 0.0 0.07203292173170271 4.5 0.0 0.047719348662513816 4.666666666666667 0.0 0.02719077988001332 4.833333333333334 0.0 0.010815364058443857 4.993147673742279 0.2616797817984178 -4.69202591268994e-6 4.972609476693919 0.5226423177411343 -3.296430023715102e-6 4.938441702626058 0.7821723274086402 -4.833344622053182e-6 4.890738003072538 1.039558456895064 -4.749590251438987e-6 4.829629130485643 1.294095229094244 -4.924251301977421e-6 4.755282579941277 1.545084976597416 -4.451049358017679e-6 4.667902130567785 1.791839752723645 -4.87030034215935e-6 4.567727286022699 2.033683220298508 -8.067561354431977e-6 4.455032618844489 2.269952502814015 -1.2832207872473993e-5 4.330127016950689 2.500000003414746 -1.2962039334743057e-5 4.193352837936671 2.723195177832185 -8.87668515328841e-6 4.045084970229543 2.938926263726781 -7.463105412235365e-6 3.885729806269635 3.146601956502879 -9.858580959094997e-6 3.715724127116278 3.345653032094926 -2.836621382107645e-6 3.345653031568937 3.715724127589879 -2.8366222200177396e-6 3.146601954114183 3.885729808203962 -9.858581816223413e-6 2.938926259806284 4.04508497307795 -7.4631074730839775e-6 2.723195172808738 4.193352841198934 -8.876683491016195e-6 2.499999997346627 4.330127020454118 -1.296204146127245e-5 2.269952495131877 4.455032622758733 -1.2832207373330969e-5 2.03368321031147 4.567727290469214 -8.067561608513772e-6 1.791839742938779 4.667902134323842 -4.8703003765009195e-6 1.545084968036192 4.755282582722986 -4.451048853619752e-6 1.294095221971398 4.829629132394204 -4.924250610700076e-6 1.039558451367956 4.89073800424736 -4.749590122246368e-6 0.7821723229235267 4.938441703336428 -4.833343884063304e-6 0.5226423144640102 4.972609477038358 -3.2964301554324536e-6 0.2616797800910389 4.993147673831758 -4.692024919101539e-6 0.0 4.833333333333333 0.010815363849520141 0.0 4.666666666666666 0.027190779680226502 0.0 4.499999999999999 0.04771934836575973 0.0 4.333333333333332 0.07203292143298863 0.0 4.166666666666665 0.09961113157791003 0.0 3.999999999999999 0.1299749526718853 0.0 3.833333333333333 0.1626576750247856 0.0 3.666666666666666 0.19723990901332009 0.0 3.499999999999999 0.23331627212082182 0.0 3.333333333333333 0.270438257365918 0.0 3.166666666666666 0.30830550874373597 0.0 3.0 0.34642382266147637 0.0 2.833333333333333 0.3846050337769739 0.0 2.666666666666667 0.42228965757540665 0.0 2.333333333333333 0.495421299566049 0.0 2.166666666666666 0.530306805635024 0.0 1.999999999999999 0.5635027845875749 0.0 1.833333333333332 0.595037493639573 0.0 1.666666666666665 0.6244720523933559 0.0 1.499999999999999 0.6518154821025868 0.0 1.333333333333333 0.6766902395151616 0.0 1.166666666666666 0.6990980836867617 0.0 0.9999999999999991 0.7187548416842466 0.0 0.8333333333333326 0.735650303297751 0.0 0.6666666666666663 0.7495758322588842 0.0 0.4999999999999996 0.7605304111847909 0.0 0.333333333333333 0.7683707816758093 0.0 0.1666666666666665 0.7731209933647952 2.033333333333464 1.866666666666144 0.4005015483129601 2.066666666666884 1.733333333332463 0.4148587298036375 2.1 1.600000000000001 0.42782694482508365 2.133333333333115 1.466666666667538 0.43937165597400724 2.166666666666231 1.333333333335076 0.44928863928774204 2.199999999999346 1.200000000002614 0.45778123959973094 2.233333333332462 1.066666666670151 0.4645550457988866 2.266666666665752 0.933333333336992 0.46978385835104197 2.299999999999216 0.800000000003136 0.47336163575049295 2.33333333333268 0.66666666666928 0.4752644226254752 2.366666666666144 0.5333333333354242 0.4754872606466604 2.399999999999608 0.4000000000015682 0.47400311606858214 2.433333333333072 0.266666666667712 0.4708250366085566 2.466666666666536 0.1333333333338562 0.4659883284028174 1.866666666666144 2.033333333333464 0.40050154829524265 1.733333333332463 2.066666666666884 0.4148587297695673 1.600000000000001 2.1 0.42782694475920524 1.466666666667538 2.133333333333115 0.4393716558643791 1.333333333335076 2.166666666666231 0.44928863915030104 1.200000000002614 2.199999999999346 0.4577812394497556 1.066666666670151 2.233333333332462 0.4645550456461972 0.933333333336992 2.266666666665752 0.4697838581748148 0.800000000003136 2.299999999999216 0.4733616355523568 0.66666666666928 2.33333333333268 0.47526442241985895 0.5333333333354242 2.366666666666144 0.47548726042267675 0.4000000000015682 2.399999999999608 0.4740031158290707 0.266666666667712 2.433333333333072 0.4708250363613958 0.1333333333338562 2.466666666666536 0.465988328141035 2.102368927062356 2.102368927062356 0.35204102761337885 2.20473785412462 2.20473785412462 0.31854226697621557 2.307106781186236 2.307106781186236 0.2856991079997594 2.409475708247852 2.409475708247852 0.25277127332739724 2.511844635309468 2.511844635309468 0.22092244302139483 2.614213562371448 2.614213562371448 0.189817435957598 2.716582489433457 2.716582489433457 0.159812646832562 2.818951416495466 2.818951416495466 0.1316243199657534 2.921320343557995 2.921320343557995 0.10486111418721553 3.023689270620524 3.023689270620524 0.08049681836860466 3.12605819768288 3.12605819768288 0.058345828871579214 3.228427124745271 3.228427124745271 0.0390810165929273 3.330796051807673 3.330796051807673 0.02272168782955651 3.433164978870034 3.433164978870034 0.009206462584775801 0.1644444444443356 0.1644444444444705 0.7716310085109135 0.1622222222221492 0.3288888888889409 0.7670581363720644 0.1599999999999628 0.4933333333334113 0.7594669038142908 0.1577777777777763 0.6577777777778819 0.7488532292920633 0.1555555555555899 0.8222222222223521 0.7353456929905444 0.1533333333334035 0.9866666666668226 0.7189361819698106 0.151111111111217 1.151111111111293 0.6998356193189376 0.1488888888890422 1.315555555555717 0.6780312094617501 0.146666666666879 1.480000000000095 0.6538289106566638 0.1444444444447158 1.644444444444472 0.627182915958241 0.1422222222225526 1.80888888888885 0.5985354229452285 0.1400000000003894 1.973333333333227 0.5677334832706291 0.1377777777782262 2.137777777777606 0.535298534991563 0.1355555555560427 2.302222222222065 0.5011750245467217 0.3288888888886544 0.1622222222222744 0.7670581363765513 0.3244444444442827 0.3244444444445488 0.7627438243760476 0.319999999999911 0.4866666666668231 0.7555111172711296 0.3155555555555392 0.6488888888890976 0.7453164035921683 0.3111111111111676 0.8111111111113717 0.7323359376328078 0.306666666666796 0.9733333333336461 0.7164917162211836 0.3022222222224242 1.135555555555921 0.6980719537790894 0.2977777777780758 1.297777777778102 0.6769651416707063 0.2933333333337505 1.46000000000019 0.6535432758731677 0.2888888888894253 1.622222222222279 0.6276999773441269 0.2844444444451001 1.784444444444368 0.5998317490722614 0.2800000000007747 1.946666666666457 0.5699097784367321 0.2755555555564496 2.108888888888546 0.5384096429171504 0.2711111111120836 2.271111111110798 0.50518302784993 0.4933333333326708 0.1600000000000783 0.7594669038256955 0.4866666666661354 0.3200000000001565 0.7555111172790178 0.4799999999996 0.4800000000002348 0.7486964961702853 0.4733333333330647 0.6400000000003134 0.7390430162173628 0.4666666666665294 0.8000000000003915 0.7266324868386105 0.4599999999999941 0.9600000000004696 0.7115020132046241 0.4533333333334588 1.120000000000548 0.6937785839070172 0.4466666666669584 1.280000000000487 0.6735296413575712 0.4400000000004927 1.440000000000287 0.6509214681370372 0.433333333334027 1.600000000000086 0.6260263736926189 0.4266666666675613 1.759999999999886 0.5991157504690715 0.4200000000010957 1.919999999999686 0.5701806139470759 0.41333333333463 2.079999999999485 0.5395884853926564 0.4066666666681035 2.239999999999529 0.5073749290970716 0.6577777777766867 0.1577777777778822 0.7488532293115916 0.648888888887988 0.3155555555557644 0.7453164036056873 0.6399999999992891 0.4733333333336466 0.7390430162252918 0.6311111111105903 0.6311111111115291 0.7299874383540791 0.6222222222218914 0.7888888888894108 0.7182944687584389 0.6133333333331921 0.9466666666672932 0.7039095710946378 0.6044444444444933 1.104444444445176 0.6870636339534585 0.5955555555558406 1.262222222222872 0.6676753039360407 0.5866666666672347 1.420000000000383 0.6460610227777777 0.5777777777786284 1.577777777777893 0.6221450975927999 0.5688888888900224 1.735555555555404 0.5962518001914273 0.5600000000014165 1.893333333332915 0.5684011337949145 0.5511111111128105 2.051111111110425 0.5389322893696337 0.5422222222241231 2.208888888888262 0.5078193596727899 0.8222222222207032 0.1555555555556862 0.7353456930254526 0.8111111111098406 0.3111111111113722 0.7
[...]
      <PointData>
        <DataArray type="Float64" Name="w" NumberOfComponents="1" format="ascii">
 11.620377550230028 6.892020931157623 -2.027846406518763e-5 -1.1438721740326237e-5 -2.0278456229323727e-5 6.892020927075942 5.773834022915202 11.596814900475938 11.525561725201307 11.407956167957549 11.243637484191057 11.034754549998603 10.78132262597864 10.486471256366604 10.150353593994193 9.777232233247458 9.367080787809336 8.925562407037091 8.452541771420096 7.9546020877651875 7.431319496754554 6.334344867595927 5.769075511299224 5.1963573445398525 4.624582636329225 4.0565738655869525 3.4997440873611296 2.958598640541187 2.439865131003642 1.9496242952724203 1.494166978967457 1.0804938259755408 0.7157902299377072 0.4078616982001998 0.16223046087665785 -7.03803886903491e-5 -4.9446450355726534e-5 -7.250016933079773e-5 -7.124385377158481e-5 -7.386376952966131e-5 -6.676574037026519e-5 -7.305450513239026e-5 -0.00012101342031647965 -0.0001924831180871099 -0.00019443059002114587 -0.00013315027729932614 -0.00011194658118353048 -0.00014787871438642496 -4.254932073161468e-5 -4.254933330026609e-5 -0.0001478787272433512 -0.00011194661209625967 -0.00013315025236524292 -0.00019443062191908675 -0.00019248311059996454 -0.00012101342412770659 -7.305450564751379e-5 -6.676573280429629e-5 -7.386375916050114e-5 -7.124385183369552e-5 -7.250015826094957e-5 -4.94464523314868e-5 -7.03803737865231e-5 0.16223045774280212 0.40786169520339755 0.7157902254863959 1.0804938214948294 1.4941669736686505 1.9496242900782794 2.439865125371784 2.9585986351998015 3.4997440818123273 4.056573860488769 4.62458263115604 5.196357339922145 5.769075506654609 6.3343448636311 7.431319493490736 7.9546020845253596 8.452541768813623 8.925562404593595 9.367080785900338 9.777232231538802 10.150353592727424 10.486471255301426 10.7813226252637 11.034754549466266 11.243637483883264 11.407956167771864 11.52556172513714 11.596814900471928 6.007523224694402 6.222880947054563 6.417404172376255 6.590574839610109 6.739329589316131 6.866718593995964 6.9683256869833 7.046757875265629 7.100424536257394 7.128966339382128 7.132308909699907 7.110046741028732 7.062375549128349 6.989824926042261 6.00752322442864 6.222880946543509 6.417404171388078 6.590574837965686 6.739329587254516 6.866718591746333 6.968325684692958 7.046757872622222 7.100424533285351 7.128966336297884 7.1323089063401515 7.11004673743606 7.062375545420936 6.989824922115526 5.280615414200683 4.778134004643234 4.285486619996391 3.7915690999109586 3.3138366453209223 2.84726153936397 2.39718970248843 1.9743647994863012 1.5729167128082329 1.20745227552907 0.8751874330736882 0.5862152488939095 0.34082531744334765 0.138096938771637 11.574465127663702 11.505872045580967 11.392003557214363 11.23279843938095 11.030185394858167 10.784042729547158 10.497534289784063 10.170468141926252 9.807433659849957 9.407743739373617 8.978031344178428 8.516002249059436 8.029478024873445 7.517625368200826 11.50587204564827 11.441157365640715 11.332666759066944 11.179746053882525 10.985039064492117 10.747375743317754 10.47107930668634 10.154477125060595 9.803149138097517 9.415499660161903 8.997476236083921 8.54864667655098 8.076144643757257 7.57774541774895 11.392003557385433 11.332666759185267 11.23044744255428 11.085645243260442 10.899487302579157 10.672530198069362 10.406678758605258 10.102944620363568 9.763822022055558 9.390395605389283 8.986736257036073 8.552709209206139 8.093827280889846 7.610623936456074 11.232798439673873 11.17974605408531 11.085645243379377 10.949811575311186 10.774417031376585 10.558643566419567 10.305954509301877 10.015129559040611 9.690915341666665 9.332176463891999 8.94377700287141 8.526017006923718 8.083984340544506 7.617290395091848 11.030185395381789 10.98503906496216 10.899487302918814 10.774417031585028 10.609753503364342 10.407576508659897 10.167534146116564 9.892981866498065 9.583129920708364 9.242080690925167 8.870164998669088 8.470495278733736 8.044716291892234 7.597075314077949 10.784042730239038 10.74737574389841 10.672530198564136 10.55864356679814 10.40757650881894 10.218772322684051 9.994868070588247 9.735161095659592 9.443310760589174 9.11919751035447 8.765571205630373 8.384891551574649 7.97875364806549 7.550056080628385 10.497534290823435 10.471079307632344 10.406678759415326 10.305954509971741 10.167534146576715 9.994868070891856 9.78555976782276 9.545001642017748 9.269628453567904 8.965763772536011 8.631068148628698 8.270807761100695 7.883351152337358 7.476601405557454 10.17046814319553 10.154477126107505 10.102944621406705 10.015129559869845 9.89298186720287 9.735161096082653 9.545001642268778 9.320482571754628 9.065991636610864 8.780843298135212 8.467083747804386 8.127782725206185 7.763256740615195 7.376680234419015 9.807433661541163 9.803149139647736 9.763822023437934 9.69091534295694 9.583129921656706 9.44331076156086 9.26962845400425 9.065991637040998 8.830809773898972 8.56657065727237 8.27532830760811 7.956901443646715 7.614328714015173 7.250299111563137 9.40774374119425 9.415499661886075 9.390395607002448 9.332176465334495 9.24208069221625 9.119197511343565 8.965763773352652 8.780843298741733 8.566570657335436 8.32472453620788 8.054591481216502 7.7601437342090005 7.442143317583737 7.101062354784117 8.978031346522142 8.997476238353972 8.986736259083388 8.94377700481159 8.870165000275753 8.765571207221562 8.63106814974443 8.46708374878479 8.275328308333918 8.054591481757294 7.808979935121325 7.537184356247668 7.241911720184223 6.924959230813835 8.516002251569047 8.548646678957255 8.552709211490779 8.526017008981938 8.470495280738115 8.384891553093095 8.270807762645713 8.127782726317035 7.95690144445952 7.760143734548235 7.5371843565410845 7.290372380615705 7.021613833047213 6.729762706750587 8.029478028009196 8.076144646733983 8.09382728369466 8.083984343189302 8.044716294194485 7.978753650364885 7.883351154149926 7.763256742244138 7.614328715481329 7.442143318868072 7.241911720968712 7.021613833298554 6.772345011926061 6.509297255516535 7.517625371392763 7.577745420859374 7.610623939389028 7.617290397826192 7.597075316712613 7.5500560827983785 7.476601407698723 7.376680236171343 7.2502991129002545 7.1010623556113535 6.924959231655459 6.729762707378877 6.509297255981388 6.2742688307303345 6.427575750438171 6.497350817371398 6.543161077824293 6.5649422680382346 6.56262552525166 6.535850796966003 6.485140695928845 6.409701853996636 6.310577352651758 6.190102435821843 6.045707923277922 5.884705689756766 5.701780129142935 5.501515766751675 5.857524653728914 5.923328890606194 5.966424967500202 5.98641995878968 5.9826665089268465 5.956575720307527 5.906962281712237 5.836624236597493 5.744831013511485 5.6302469341457915 5.498376129546203 5.340666190269838 5.169357810614799 4.979522829027461 5.27760784371745 5.338541220061702 5.37887475415192 5.397278966295592 5.395690145036961 5.371186699331894 5.327161810727769 5.259746105574476 5.172651084452366 5.067378111070672 4.9414488843171736 4.8051626926487545 4.646694927809828 4.473949070084244 4.699813460130165 4.755719852557065 4.79219323486526 4.808818123263979 4.8048145426482005 4.781739102812002 4.738749413463908 4.678665188677735 4.600916563595191 4.503335282955018 4.392032160545166 4.256110306622487 4.114728505172111 3.9583166006144057 4.123007066289939 4.172337462529809 4.205760875723074 4.219745506776098 4.218365665373158 4.197447861686708 4.160837596903034 4.1046801966181885 4.032382938811531 3.9463466545017902 3.8437744474908695 3.736828082090877 3.605557501528358 3.4656886626575214 3.559111560209208 3.6030975363386735 3.6320058275758034 3.643794571895755 3.6402144448434575 3.619705832483425 3.585775564994186 3.5365769088163126 3.476724421900484 3.398394137445727 3.3115080154253227 3.200638756179817 3.0953272331808246 2.9730650451187346 3.008594257580486 3.0447717750982304 3.070389160822622 3.0791657104620027 3.0777982120038283 3.0608079037231257 3.0326800122760593 2.989390545717381 2.9337179280157057 2.868862809201363 2.793295301366759 2.716151517270453 2.616128716889089 2.511099632983497 2.4827116115434364 2.5137985228530453 2.534602984391517 2.5410840482453834 2.5377870345651745 2.52022595310882 2.49569804105559 2.458724975336513 2.4177353712104206 2.3606367636704433 2.298686894002237 2.217212207087743 2.145338988427559 2.0622911208462047 1.9836296446056936 2.0065186488905984 2.024062845623235 2.027480776926298 2.026061128817075 2.012897701663976 1.9942282691431445 1.963769047674143 1.9258761427543811 1.8816557333602337 1.833814678066836 1.7852375183978144 1.7197512675357571 1.6447219183302633 1.521612481412821 1.5411236815012728 1.5537419428683634 1.5553709169581007 1.5520859903460036 1.5378729634350736 1.5225679606989526 1.4982262114136273 1.475242684303519 1.4388780919641813 1.4008959375235912 1.3477792847772756 1.3075896377289162 1.262486236462017 1.1011638987968726 1.1129439884472168 1.1226758252260047 1.1217918359889076 1.1201642273616212 1.1114148283192449 1.1024085503230598 1.0844475970120562 1.0632836139522575 1.0362740958010166 1.0135261049964317 0.9904870361681752 0.9580857328958815 0.9107183533144992 0.7313113289554914 0.7422352679776081 0.7476207091040473 0.74594044639296 0.743204616779712 0.7332386389507785 0.7265792394735098 0.7144093314786532 0.7066021695736727 0.6868180365941691 0.6659352631361939 0.6391584858520606 0.6271839154266091 0.6114539434125663 0.41950975932899964 0.42116308940880987 0.4240770421208676 0.42268077456139147 0.4230426998588627 0.4216629266075542 0.4218090961383232 0.41428047247709343 0.4075103543303585 0.3904282918046621 0.3858778540956927 0.37449484996849836 0.37635794685697693 0.35638778363275425 0.17599629636438915 0.17085491769267466 0.17532723387331595 0.17431815187568594 0.17603533519158868 0.17715591901794173 0.17902623667940376 0.18122306044462833 0.18309052601221207 0.17567274249881082 0.17189944927752324 0.1752108625030042 0.1742733136985584 0.1453355565241938 5.501515766684635 5.701780128119106 5.884705688682208 6.045707922249168 6.190102434738459 6.310577351087723 6.409701851807989 6.485140693350488 6.535850794283932 6.562625522081309 6.564942264676887 6.543161074278143 6.497350813588888 6.4275757465574115 4.979522828077635 5.169357810421481 5.340666189282348 5.498376127851152 5.6302469316215165 5.744831010775009 5.8366242339237395 5.906962278806007 5.956575716756179 5.982666505380983 5.9864199547747665 5.966424963267732 5.9233288862113715 5.857524649132389 4.47394907049906 4.6466949266220645 4.8051626913390715 4.941448883084606 5.0673781099939665 5.172651083019302 5.259746103275991 5.327161807855262 5.371186696432512 5.395690141324925 5.397278962543752 5.378874750006153 5.338541215699336 5.277607839238035 3.958316599481844 4.11472850451613 4.256110306086051 4.3920321587702835 4.503335280353999 4.600916560402688 4.67866518576451 4.738749410303292 4.781739098878554 4.804814538791225 4.808818118702378 4.792193230168584 4.755719847579125 4.6998134549718715 3.465688662855601 3.6055575013136143 3.7368280799922706 3.8437744463265067 3.9463466532578737 4.032382937635175 4.104680194188287 4.160837593966637 4.197447858594053 4.21836566136073 4.2197455027642015 4.205760871114877 4.1723374577786245 4.123007061321962 2.9730650444176208 3.095327231425326 3.2006387563028666 3.3115080136605313 3.3983941349449625 3.476724418338453 3.536576906041268 3.5857755616385405 3.619705828550329 3.6402144408160715 3.643794567085981 3.6320058226212746 3.6030975309799813 3.559111554695361 2.5110996329061863 2.6161287175781127 2.7161515149489515 2.7932953000698117 2.868862807914916 2.933717927261634 2.9893905431487307 3.032680009587483 3.0608079006240363 3.077798208001973 3.0791657064733173 3.070389156014758 3.044771770241508 3.008594252325215 2.0622911203129464 2.1453389864115975 2.2172122072662357 2.2986868925108377 2.3606367613026498 2.41773536736937 2.458724973085185 2.4956980376567923 2.5202259496324726 2.5377870306194055 2.5410840436080577 2.5346029794838447 2.5137985174707067 2.4827116059520495 1.6447219185843562 1.7197512684052785 1.7852375163987715 1.8338146765684304 1.881655732304424 1.9258761423418838 1.9637690452477812 1.9942282669446096 2.012897698990112 2.0260611251203433 2.0274807734721128 2.024062840915231 2.0065186444226386 1.983629639380117 1.2624862359155187 1.307589636204469 1.3477792851335229 1.4008959360915554 1.438878089614401 1.4752426801965721 1.4982262101997987 1.5225679573137407 1.5378729611953244 1.5520859865632817 1.5553709132056017 1.5537419383165665 1.5411236766877108 1.5216124761725551 0.910718354453932 0.9580857337719536 0.9904870350471794 1.0135261027503917 1.036274095770046 1.0632836130404903 1.084447595776862 1.1024085486139055 1.1114148267880632 1.1201642241505043 1.1217918337819077 1.1226758210666197 1.112943985168333 1.1011638940404223 0.6114539430014772 0.627183915170286 0.6391584870420595 0.6659352607227473 0.6868180339886066 0.7066021645190167 0.714409332106342 0.726579236399832 0.7332386385492875 0.7432046131152065 0.7459404443694685 0.7476207054676476 0.7422352647091612 0.731311324596022 0.35638778583726505 0.37635794693494146 0.3744948541463419 0.38587784802784847 0.3904282929354997 0.407510351605609 0.41428047607261775 0.42180909432869595 0.42166292631962526 0.42304269751757617 0.4226807740280951 0.4240770396919224 0.4211630887579934 0.4195097555282676 0.1453355594738089 0.17427331666392107 0.17521086678906234 0.17189944313453176 0.1756727472655242 0.18309052605544474 0.18122306253987513 0.17902623673626877 0.17715591797861702 0.17603533342183217 0.17431815214500873 0.1753272316857732 0.1708549187918467 0.1759962931704096
</DataArray>
        <DataArray type="Float64" Name="φ₁" NumberOfComponents="1" format="ascii">