<?xml version="1.0" encoding="utf-8"?>
<VTKFile type="UnstructuredGrid" version="1.0" byte_order="LittleEndian" header_type="UInt64">
  <UnstructuredGrid>
    <Piece NumberOfPoints="37" NumberOfCells="54">
      <Points>
        <DataArray type="Float64" Name="Points" NumberOfComponents="3" format="ascii">
 0.0 0.0 4.456389874146582 2.5 0.0 2.610479478723691 5.0 0.0 0.31959854065151805 3.535533905932737 3.535533905932737 -0.25308261835255924 0.0 5.0 0.319598540570969 0.0 2.5 2.610479479883536 2.0 2.0 0.026663871953360282 0.8333333333315658 0.0 4.389361501543262 1.6666666666654 0.0 3.7168582980092095 3.333333333333334 0.0 -0.9972440464710354 4.166666666666667 0.0 0.26039913389242936 4.829629130485643 1.294095229094244 -0.2530826200002594 4.330127016950689 2.500000003414746 0.31959854112331126 2.499999997346627 4.330127020454118 0.31959854189168563 1.294095221971398 4.829629132394204 -0.25308262072835663 0.0 4.166666666666666 0.2603991348298263 0.0 3.333333333333333 -0.9972440490303014 0.0 1.666666666666666 3.7168582982349676 0.0 0.8333333333333328 4.38936150132598 2.166666666666231 1.333333333335076 2.6277326941771917 2.33333333333268 0.66666666666928 0.22176577981674417 1.333333333335076 2.166666666666231 2.6277326943771278 0.66666666666928 2.33333333333268 0.22176577979382142 2.511844635309468 2.511844635309468 -0.2597115864994525 3.023689270620524 3.023689270620524 0.7920384036591271 0.7777777777772529 0.7777777777784308 4.068684035610105 0.72222222222323 1.5555555555557 3.6605536707548993 1.555555555554857 0.722222222223819 3.660553671064938 1.444444444444893 1.444444444445315 5.439712721549255 3.165431932383048 0.8758095208104025 0.6287627357314407 2.887820116759953 1.722222223360607 0.7513474954442156 3.997530531434097 1.08495237495211 0.4684517585166859 3.608973566854881 2.111111113387266 0.33663952034305683 1.722222221337901 2.887820117927763 0.7513474962164972 0.8758095184361208 3.165431933019235 0.6287627347073934 2.111111109341854 3.608973569190501 0.3366395192608692 1.084952370203547 3.99753053270647 0.4684517577624247
</DataArray>
      </Points>
      <Cells>
        <DataArray type="Int64" Name="connectivity" NumberOfComponents="1" format="ascii">
 0 7 18 18 7 25 18 25 17 17 25 26 17 26 5 5 26 22 7 8 25 25 8 27 25 27 26 26 27 28 26 28 22 22 28 21 8 1 27 27 1 20 27 20 28 28 20 19 28 19 21 21 19 6 1 9 29 29 20 1 20 29 30 30 19 20 19 30 23 23 6 19 9 10 31 31 29 9 29 31 32 32 30 29 30 32 24 24 23 30 10 2 11 11 31 10 31 11 12 12 32 31 32 12 3 3 24 32 6 23 21 21 23 33 21 33 22 22 33 34 22 34 5 5 34 16 23 24 33 33 24 35 33 35 34 34 35 36 34 36 16 16 36 15 24 3 35 35 3 13 35 13 36 36 13 14 36 14 15 15 14 4
</DataArray>
        <DataArray type="Int64" Name="offsets" NumberOfComponents="1" format="ascii">
 3 6 9 12 15 18 21 24 27 30 33 36 39 42 45 48 51 54 57 60 63 66 69 72 75 78 81 84 87 90 93 96 99 102 105 108 111 114 117 120 123 126 129 132 135 138 141 144 147 150 153 156 159 162
</DataArray>
        <DataArray type="UInt8" Name="types" NumberOfComponents="1" format="ascii">
 5 5 5 5 5 5 5 5 5 5 5 5 5 5 5 5 5 5 5 5 5 5 5 5 5 5 5 5 5 5 5 5 5 5 5 5 5 5 5 5 5 5 5 5 5 5 5 5 5 5 5 5 5 5
</DataArray>
      </Cells>
      <PointData>
        <DataArray type="Float64" Name="w" NumberOfComponents="1" format="ascii">
 4.456389874146582 2.610479478723691 0.31959854065151805 -0.25308261835255924 0.319598540570969 2.610479479883536 0.026663871953360282 4.389361501543262 3.7168582980092095 -0.9972440464710354 0.26039913389242936 -0.2530826200002594 0.31959854112331126 0.31959854189168563 -0.25308262072835663 0.2603991348298263 -0.9972440490303014 3.7168582982349676 4.38936150132598 2.6277326941771917 0.22176577981674417 2.6277326943771278 0.22176577979382142 -0.2597115864994525 0.7920384036591271 4.068684035610105 3.6605536707548993 3.660553671064938 5.439712721549255 0.6287627357314407 0.7513474954442156 0.4684517585166859 0.33663952034305683 0.7513474962164972 0.6287627347073934 0.3366395192608692 0.4684517577624247
</DataArray>
        <DataArray type="Float64" Name="phi_1" NumberOfComponents="1" format="ascii">
 -0.0025630653072618702 -0.7768785732706108 -0.13566530932571993 -0.09155442907596316 -0.002563067794026873 0.0025630668608531406 -0.4194286074546678 -0.49422148992606924 -0.8172098434189138 -0.7682317294171135 -0.06436274144533327 -0.1260038256801148 -0.11783299002710253 -0.06911419007575059 -0.0318863260850427 0.002563067111259142 -0.002563064924013484 -0.002563066479257294 0.002563063988333817 -0.5469428658425305 -0.889781392406982 -0.5514826000463391 -0.04726679594093915 -0.3624487690735013 -0.16766129147978825 -0.5062709496487768 -0.1603790097610173 -1.0979097756670686 -0.6484928582934547 -0.6403815062809396 -0.5085565183569144 -0.21558197577539517 -0.3403941652133686 -0.04013993945136621 0.03189628628086548 -0.1937805687844122 0.20399837106331273
</DataArray>
        <DataArray type="Float64" Name="phi_2" NumberOfComponents="1" format="ascii">
 -0.0025630637956338045 0.002563065349225037 -0.0025630662823986376 -0.09155442931962496 -0.13566530824350906 -0.7768785729018342 -0.41942860718946745 0.0025630624767057474 -0.0025630649676292127 -0.0025630634123853463 0.0025630655996309636 -0.031886328172200086 -0.0691141882833879 -0.11783299210552771 -0.12600382388181122 -0.06436274049745226 -0.7682317294258778 -0.8172098425835626 -0.49422148977915836 -0.5514826001461575 -0.04726679651635103 -0.5469428652028723 -0.8897813925748965 -0.3624487688555837 -0.1676612919412093 -0.5062709499425568 -1.0979097757448484 -0.1603790090806934 -0.6484928580299907 0.0318962857974192 -0.04013994014331299 0.20399837023185852 -0.19378056882703698 -0.5085565183933225 -0.6403815062434203 -0.34039416634205577 -0.2155819745725401
</DataArray>
        <DataArray type="Float64" Name="Q_1" NumberOfComponents="1" format="ascii">
 1.0293359533697752 1.8194911846695527 -2.5910959215452434 -1.1188810220678183 2.333540246684806 1.258473183853054 3.2658442503271363 -0.35147423967666747 0.02580256013175007 -4.090668555767362 4.254614455734804 -2.948655378759109 -2.251267643566851 -1.88584527200997 -0.8608722490723915 -0.8720058572254175 4.0166802061193305 -2.089372764410296 -1.0945283788678306 2.348375398232209 -1.0866594668105019 -4.6502268858482845 2.469289788939807 -0.8306440648358717 0.46308183680797493 0.7987080234351185 1.2520536774405866 -4.2639341665765835 -1.0593595674575578 -0.1336280859456379 -0.8692818710098043 1.4823446508857276 -0.11152467792319712 1.8247673792390169 -1.586385794041577 -0.48573809983908495 1.836374792005577
</DataArray>
        <DataArray type="Float64" Name="Q_2" NumberOfComponents="1" format="ascii">
 1.02933594690012 1.2584731909226734 2.333540223958398 -1.118881022309926 -2.5910959286352986 1.8194911850017637 3.265844251490183 -1.0945283756067128 -2.089372767587653 4.016680200221287 -0.8720058427214292 -0.8608722408037882 -1.885845284373887 -2.251267635840471 -2.948655386200211 4.254614458005849 -4.090668558053121 0.0258025601136187 -0.35147423945113154 -4.650226889974917 2.4692897901792508 2.348375399790519 -1.0866594663625369 -0.8306440645127353 0.4630818359555627 0.7987080234966706 -4.26393416637875 1.2520536768198844 -1.0593595687602873 -1.5863857999347137 1.8247673809162108 1.8363747866034255 -0.4857380985317094 -0.8692818677163453 -0.13362809173267515 -0.11152467728522511 1.4823446571927403
</DataArray>
      </PointData>
    </Piece>
  </UnstructuredGrid>
</VTKFile>
