<?xml version="1.0" encoding="utf-8"?>
<VTKFile type="UnstructuredGrid" version="1.0" byte_order="LittleEndian" header_type="UInt64">
  <UnstructuredGrid>
    <Piece NumberOfPoints="631" NumberOfCells="1176">
      <Points>
        <DataArray type="Float64" Name="Points" NumberOfComponents="3" format="ascii">
 0.0 0.0 0.7644586249700772 2.5 0.0 0.45456699606349543 5.0 0.0 9.574547486377983e-5 3.535533905932737 3.535533905932737 9.574511579547966e-5 0.0 5.0 9.574547455924635e-5 0.0 2.5 0.45456699606186124 2.0 2.0 0.37933934474329395 0.1785714285712757 0.0 0.763268515644373 0.3571428571424804 0.0 0.7581896438926424 0.5357142857133874 0.0 0.7494637068655294 0.7142857142842944 0.0 0.7372099700772272 0.8928571428552013 0.0 0.7215375350797331 1.0714285714264 0.0 0.7025676354214574 1.2499999999981 0.0 0.6804448373595744 1.4285714285698 0.0 0.6553351705628142 1.6071428571415 0.0 0.62743088614057 1.7857142857132 0.0 0.5969468741205536 1.9642857142849 0.0 0.5641254786872618 2.1428571428566 0.0 0.5292353988595255 2.3214285714283 0.0 0.4925862969784057 2.678571428571429 0.0 0.4146833719686978 2.857142857142858 0.0 0.37424103468975284 3.035714285714286 0.0 0.33348459097350464 3.214285714285715 0.0 0.2928007544331005 3.392857142857144 0.0 0.2526259084288439 3.571428571428572 0.0 0.21342584286642569 3.750000000000001 0.0 0.17569627790178233 3.928571428571429 0.0 0.13995776895727283 4.107142857142858 0.0 0.10675945723510862 4.285714285714286 0.0 0.07667565275531346 4.464285714285715 0.0 0.05031080064740225 4.642857142857143 0.0 0.02829912854740575 4.821428571428571 0.0 0.011316192269392972 4.992134075053608 0.2803522368176583 9.234441261461761e-5 4.968561049294108 0.5598223820440165 9.574542468582164e-5 4.929355092188564 0.8375311188933128 9.234446802155492e-5 4.874639560198691 1.112604672894154 9.574537194896471e-5 4.804586608558072 1.38417756117647 9.234452206242923e-5 4.719416649831025 1.651395314665057 9.574531926644721e-5 4.619397660328271 1.91341716720471 9.23445744729341e-5 4.504844337373308 2.169418700029028 9.574526505956152e-5 4.376117107584961 2.418594439070394 9.234462674733747e-5 4.233620994344893 2.660160385435841 9.574521388999653e-5 4.077804343103194 2.893356483285238 9.234467899392511e-5 3.909157411221246 3.117449010696728 9.574516257586302e-5 3.728210824110724 3.331732890101431 9.234473100642718e-5 3.331732889454751 3.728210824688631 9.234473217429741e-5 3.117449007990614 3.909157413379299 9.57451649008108e-5 2.893356479086549 4.077804346082321 9.23446789405987e-5 2.660160380075487 4.233620997713025 9.574521553569731e-5 2.418594432668118 4.376117111123373 9.234462642702184e-5 2.169418691364848 4.504844341545757 9.574526847898808e-5 1.913417156759158 4.619397664654959 9.23445733287009e-5 1.651395305759084 4.719416652947358 9.574531789196338e-5 1.384177553784759 4.804586610687586 9.234452108994315e-5 1.112604666740323 4.874639561603262 9.574537106305272e-5 0.8375311141520867 4.929355092994129 9.234446688387295e-5 0.5598223785324881 4.968561049689761 9.574542410624985e-5 0.2803522351555845 4.992134075146947 9.234441067765552e-5 0.0 4.821428571428571 0.011316192269820204 0.0 4.642857142857142 0.02829912854858448 0.0 4.464285714285714 0.05031080064891623 0.0 4.285714285714285 0.07667565275699621 0.0 4.107142857142856 0.1067594572366735 0.0 3.928571428571428 0.13995776895869663 0.0 3.749999999999999 0.17569627790286932 0.0 3.571428571428571 0.21342584286722488 0.0 3.392857142857142 0.2526259084291966 0.0 3.214285714285714 0.29280075443309383 0.0 3.035714285714285 0.3334845909729951 0.0 2.857142857142857 0.37424103468885733 0.0 2.678571428571428 0.4146833719673001 0.0 2.321428571428571 0.4925862969767351 0.0 2.142857142857142 0.5292353988579861 0.0 1.964285714285713 0.5641254786857751 0.0 1.785714285714284 0.5969468741192548 0.0 1.607142857142856 0.6274308861393566 0.0 1.428571428571428 0.655335170561808 0.0 1.249999999999999 0.6804448373586635 0.0 1.071428571428571 0.7025676354207566 0.0 0.8928571428571421 0.7215375350791704 0.0 0.7142857142857137 0.7372099700769185 0.0 0.5357142857142851 0.7494637068653162 0.0 0.3571428571428568 0.7581896438925976 0.0 0.1785714285714284 0.7632685156443161 2.035714285714425 1.857142857142298 0.3960170019239845 2.071428571428758 1.714285714284968 0.4111466254545148 2.10714285714281 1.571428571428759 0.4246827973980902 2.142857142856863 1.428571428572549 0.4365620332947421 2.178571428570915 1.285714285716339 0.4467191932645973 2.214285714284967 1.14285714286013 0.4550950335454563 2.24999999999903 1.000000000003879 0.46163953757142123 2.285714285713446 0.8571428571462172 0.4663134240780541 2.321428571427871 0.7142857142885142 0.46908896647333137 2.357142857142297 0.5714285714308114 0.4699507382681718 2.392857142856723 0.4285714285731084 0.4688969268847737 2.428571428571149 0.2857142857154058 0.46594272011406673 2.464285714285574 0.1428571428577028 0.461130717466082 1.857142857142298 2.035714285714425 0.3960170019240981 1.714285714284968 2.071428571428758 0.411146625454906 1.571428571428759 2.10714285714281 0.42468279739854004 1.428571428572549 2.142857142856863 0.4365620332951536 1.285714285716339 2.178571428570915 0.44671919326495607 1.14285714286013 2.214285714284967 0.4550950335458149 1.000000000003879 2.24999999999903 0.461639537571522 0.8571428571462172 2.285714285713446 0.46631342407756243 0.7142857142885142 2.321428571427871 0.46908896647243875 0.5714285714308114 2.357142857142297 0.4699507382670088 0.4285714285731084 2.392857142856723 0.4688969268833973 0.2857142857154058 2.428571428571149 0.4659427201125472 0.1428571428577028 2.464285714285574 0.46113071746444734 2.109680993281096 2.109680993281096 0.34467168696736133 2.219361986561994 2.219361986561994 0.30975383662780553 2.329042979842296 2.329042979842296 0.27496173988403777 2.438723973122599 2.438723973122599 0.2406348098573456 2.548404966403075 2.548404966403075 0.2071033386088053 2.658085959683725 2.658085959683725 0.17470165332649443 2.767766952964375 2.767766952964375 0.1437738558081157 2.877447946245383 2.877447946245383 0.11467624990714409 2.98712893952685 2.98712893952685 0.08777832277613547 3.096809932808008 3.096809932808008 0.0634629809826118 3.206490926089054 3.206490926089054 0.04212615256456061 3.316171919370112 3.316171919370112 0.02417540961957344 3.425852912651282 3.425852912651282 0.010026570037910921 0.1760204081631533 0.1760204081632951 0.7617407917615778 0.173469387755031 0.3520408163265903 0.756753760794867 0.1709183673469086 0.5280612244898852 0.7482981154787774 0.1683673469387862 0.7040816326531807 0.7364338863712531 0.1658163265306639 0.8801020408164759 0.7212497205513145 0.1632653061225416 1.056122448979771 0.7028571509690013 0.1607142857144199 1.232142857143063 0.6813902462099196 0.1581632653063236 1.408163265306254 0.6570059964296913 0.1556122448982279 1.584183673469443 0.629884382468425 0.1530612244901322 1.760204081632632 0.6002285114341049 0.1505102040820365 1.936224489795821 0.5682645829864575 0.1479591836739408 2.112244897959009 0.5342420784581905 0.1454081632658251 2.288265306122278 0.49843344591021144 0.3520408163262407 0.1734693877551619 0.7567537607949276 0.3469387755100011 0.3469387755103238 0.7519964743365288 0.3418367346937617 0.5204081632654857 0.7439106144129753 0.3367346938775219 0.6938775510206477 0.7325367691059904 0.3316326530612823 0.8673469387758096 0.7179482944189264 0.3265306122450428 1.040816326530972 0.70024514263989 0.3214285714288045 1.214285714286127 0.6795506799233908 0.3163265306126167 1.387755102041082 0.6560112311190646 0.3112244897964305 1.561224489796031 0.6297949999681699 0.3061224489802442 1.734693877550979 0.6010922834470244 0.301020408164058 1.908163265305928 0.5701144659909688 0.2959183673478717 2.081632653060877 0.5370939042221501 0.2908163265316453 2.255102040815987 0.502281609596397 0.5280612244890517 0.1709183673470286 0.74829811547894 0.5204081632647161 0.3418367346940573 0.7439106144130712 0.5127551020403806 0.5127551020410859 0.7363105035309573 0.5051020408160449 0.6836734693881146 0.7255357175298806 0.4974489795917091 0.8545918367351434 0.7116515035004337 0.4897959183673736 1.025510204082172 0.6947482248728267 0.4821428571430402 1.196428571429192 0.6749392225470583 0.4744897959187822 1.36734693877591 0.6523600306333106 0.4668367346945266 1.538265306122618 0.6271673069727515 0.4591836734702708 1.709183673469327 0.5995386150634681 0.4515306122460153 1.880102040816036 0.569671465740686 0.4438775510217596 2.051020408162745 0.5377829129149007 0.4362244897974439 2.221938775509694 0.5041078682875693 0.7040816326518629 0.1683673469388954 0.7364338863715625 0.6938775510194312 0.3367346938777908 0.7325367691062374 0.6836734693869996 0.5051020408166862 0.7255357175300221 0.6734693877545679 0.6734693877555816 0.7154686251512831 0.6632653061221361 0.8418367346944772 0.7023957914628395 0.6530612244897046 1.010204081633373 0.6863998939506081 0.6428571428572758 1.178571428572256 0.6675851550291304 0.6326530612249479 1.346938775510737 0.6460767888296189 0.6224489795926229 1.515306122449205 0.6220202283921498 0.6122448979602979 1.683673469387674 0.5955807176408672 0.6020408163279729 1.852040816326144 0.5669425350733837 0.591836734695648 2.020408163264612 0.536308486976682 0.5816326530632431 2.188775510203402 0.5038988855835355 0.8801020408146735 0.1658163265307621 0.721249720551808 0.867346938774146 0.3316326530615243 0.7179482944193434 0.8545918367336184 0.4974489795922861 0.711651503500741 0.8418367346930907 0.6632653061230486 0.7023957914630048 0.8290816326525628 0.8290816326538107 0.6902370864694357 0.8163265306120355 0.9948979591845732 0.6752513016302368 0.8035714285715114 1.160714285715321 0.6575342186774352 0.7908163265311134 1.326530612245564 0.6372012569865695 0.7780612244907191 1.492346938775792 0.6143870164693748 0.7653061224503246 1.658163265306022 0.5892448824374201 0.7525510204099302 1.823979591836251 0.5619464041260479 0.7397959183695362 1.98979591836648 0.5326807551872658 0.7270408163290417 2.155612244897109 0.5016540359706204 1.056122448977755 0.163
[...]
      <PointData>
        <DataArray type="Float64" Name="w" NumberOfComponents="1" format="ascii">
 11.466879374551159 6.818504940952431 0.0014361821229566976 0.001436176736932195 0.0014361821183886952 6.818504940927919 5.690090171149409 11.449027734665595 11.372844658389637 11.24195560298294 11.058149551158408 10.823063026195996 10.53851453132186 10.206672560393615 9.830027558442213 9.41146329210855 8.954203111808305 8.461882180308928 7.938530982892883 7.388794454676086 6.220250579530467 5.6136155203462925 5.00226886460257 4.392011316496507 3.7893886264326584 3.2013876429963855 2.635444168526735 2.0993665343590924 1.6013918585266291 1.150134791329702 0.7546620097110338 0.42448692821108625 0.16974288404089458 0.0013851661892192641 0.0014361813702873246 0.0013851670203233238 0.0014361805792344707 0.0013851678309364384 0.0014361797889967081 0.0013851686170940115 0.001436178975893423 0.001385169401210062 0.001436178208349948 0.0013851701849088766 0.0014361774386379453 0.0013851709650964078 0.0013851709826144612 0.001436177473512162 0.0013851701841089805 0.0014361782330354596 0.0013851693964053275 0.0014361790271848211 0.0013851685999305135 0.0014361797683794507 0.0013851678163491472 0.0014361805659457909 0.0013851670032580942 0.0014361813615937477 0.0013851661601648327 0.16974288404730306 0.4244869282287672 0.7546620097337434 1.1501347913549431 1.6013918585501026 2.0993665343804495 2.6354441685430396 3.201387643008373 3.7893886264379484 4.392011316496408 5.002268864594926 5.61361552033286 6.220250579509502 7.388794454651027 7.938530982869791 8.461882180286628 8.954203111788823 9.41146329209035 9.83002755842712 10.206672560379952 10.53851453131135 10.823063026187556 11.058149551153777 11.241955602979742 11.372844658388964 11.44902773466474 5.9402550288597675 6.167199381817722 6.370241960971352 6.548430499421131 6.70078789896896 6.826425503181844 6.924593063571319 6.9947013611708115 7.03633449709997 7.049261074022577 7.033453903271606 6.989140801711001 6.91696076199123 5.940255028861472 6.16719938182359 6.370241960978101 6.548430499427304 6.700787898974341 6.826425503187223 6.924593063572829 6.994701361163436 7.036334497086581 7.049261074005131 7.033453903250959 6.989140801688208 6.91696076196671 5.17007530451042 4.646307549417083 4.1244260982605665 3.6095221478601838 3.1065500791320795 2.6205247998974164 2.156607837121735 1.7201437486071613 1.316674841642032 0.9519447147391771 0.6318922884684091 0.3626311442936016 0.15039855056866383 11.426111876423667 11.351306411923005 11.224471732181662 11.046508295568795 10.818745808269718 10.54285726453502 10.220853693148793 9.85508994644537 9.448265737026375 9.003427671511574 8.523968744796862 8.013631176872858 7.476501688653172 11.351306411923915 11.279947115047932 11.15865921619463 10.988051536589856 10.769224416283896 10.50367713959835 10.193260198850862 9.840168466785968 9.44692499952255 9.016384251705366 8.551716989864532 8.056408563332251 7.534224143945955 11.2244717321841 11.158659216196067 11.04465755296436 10.883035762948209 10.674772552506505 10.4212233730924 10.124088338205874 9.785400459499659 9.407509604591272 8.993079225952021 8.545071986110289 8.06674369372351 7.561618024313539 11.046508295573437 10.988051536593561 10.883035762950332 10.732029377269246 10.535936871942592 10.295998409259122 10.013777325436957 9.691151832444284 9.330303425882246 8.933710764613007 8.504138026100755 8.04462730465023 7.5584832837530325 10.81874580827712 10.76922441629015 10.674772552511115 10.535936871945072 10.353556297041536 10.128769524453553 9.863013280161528 9.558018854798542 9.215805247040622 8.838673236561302 8.42919606189072 7.990211327808986 7.524810539559307 10.542857264545262 10.503677139607412 10.421223373099641 10.295998409264108 10.128769524456002 9.920576482662163 9.67273407387153 9.386832104507727 9.06473230666676 8.70856390559282 8.320716027122957 7.903829022420344 7.460784553965512 10.220853693161219 10.193260198861898 10.124088338215044 10.013777325443844 9.863013280165848 9.67273407387341 9.444132950596375 9.178660636410815 8.878025123776423 8.544189263039959 8.17936472607481 7.786002478534396 7.36678017389673 9.855089946460033 9.84016846679924 9.785400459510866 9.691151832453032 9.558018854804589 9.386832104511221 9.178660636412323 8.934815594727311 8.656852413316262 8.346570940151862 8.006011620808948 7.637445695123153 7.243357732427528 9.448265737043203 9.446924999537748 9.407509604604291 9.330303425892636 9.215805247048126 9.064732306671505 8.87802512377898 8.6568524133172 8.402615527097911 8.11695181868426 7.801734865428004 7.4590672106858875 7.091258730185638 9.003427671530533 9.016384251722677 8.993079225966927 8.933710764624978 8.838673236570044 8.708563905598446 8.544189263043041 8.346570940153116 8.116951818684482 7.856802908468821 7.5678301177133545 7.251975936561096 6.911402185070203 8.523968744817767 8.551716989883593 8.545071986126823 8.504138026114125 8.429196061900498 8.320716027129096 8.179364726077877 8.006011620809858 7.801734865427705 7.567830117712728 7.305824649092996 7.0174965455638265 6.704885416426738 8.013631176895487 8.056408563353136 8.066743693741731 8.044627304665017 7.990211327819727 7.903829022426714 7.786002478536832 7.637445695123004 7.459067210684393 7.251975936559057 7.017496545562241 6.75720620005468 6.473006117587117 7.476501688677063 7.534224143968038 7.561618024333098 7.55848328376915 7.52481053957109 7.460784553972027 7.366780173897776 7.243357732425469 7.0912587301823775 6.911402185066178 6.704885416422784 6.473006117584523 6.217366377390921 6.317767242853813 6.387729261400579 6.430491484664179 6.445861144792724 6.433727806398554 6.394174898655391 6.327495694759764 6.234191479861121 6.114966276414948 5.970721694859204 5.80255775942824 5.611801155549633 5.400135604461806 5.705620617092433 5.772100032881977 5.812844237616061 5.827703275779574 5.8166355789047826 5.779779439254949 5.717483972835984 5.630318769530767 5.5190755702276935 5.384769737099741 5.22865003476946 5.052230727002203 4.85736242374792 5.087262059689318 5.149044855597716 5.187129762802854 5.201273951654285 5.1914286901051785 5.157752719559555 5.100626455364589 5.020658930793935 4.918689587996238 4.795788691724793 4.653260080241153 4.492646881275251 4.315725855769234 4.469058243503624 4.525317116915852 4.560205018347863 4.573413037382512 4.564869078224629 4.534729816844276 4.483381960760761 4.411442584572333 4.3197568522828815 4.209393142126174 4.081635114776399 3.937965624520845 3.780026693659893 3.857803545065623 3.90795759262759 3.939243094347182 3.9513230942220026 3.9441091113945044 3.9177473977877435 3.8726126059342647 3.809302618997809 3.728631870000567 3.631621188378056 3.519482117738758 3.3935899882559473 3.2554364027933502 3.2607381372310535 3.304405703646117 3.3318036088414864 3.342600336826451 3.3367045116619214 3.314250779814513 3.2755896032385583 3.221278426333152 3.152072177171884 3.0689098929751863 2.972895645066969 2.8652686494409556 2.747358822225079 2.6855287274984914 2.7225129570954043 2.745853899621067 2.755250169476028 2.7506228731276945 2.7320978979294424 2.699994017233034 2.6548125120183514 2.5972272624224497 2.5280706488000306 2.448315003986399 2.359044197079878 2.2614155238041573 2.1402598713916925 2.1705525024478365 2.1897784965175946 2.19769385075081 2.1942474251476383 2.1795604960357777 2.153915447564623 2.1177459837821098 2.071629515598718 2.0162744783146462 1.9525055867396015 1.8812393760017228 1.8034542345332105 1.6334279541650123 1.6572081908199479 1.6723747412140229 1.678767091513799 1.6763764934206997 1.665323306632443 1.6458501506927494 1.6183151046868405 1.5831889687775893 1.5410455255661606 1.4925532990257466 1.4384568245357905 1.379557895036423 1.1739413824699425 1.1915755369103835 1.2028496302638125 1.2077174712750605 1.2062219217774812 1.198482890224867 1.184699486368712 1.165149213661784 1.1401909221553879 1.1102595149777343 1.075865319489657 1.0375836150527513 0.9960513251034596 0.7711157129460315 0.783143493139821 0.7908083086634845 0.7941991655509409 0.793406823399098 0.7885467788845104 0.7797687652396167 0.7672695856984986 0.7512949626347935 0.7321447937993363 0.7101739960485195 0.6857986509744742 0.6595070015866757 0.43466526438269665 0.4417824290147004 0.44624453554892096 0.4482700568255914 0.4479645941314879 0.4454341037312497 0.4407663568582553 0.43408889566340725 0.42553370711179794 0.41528430250009685 0.40354233912051557 0.3905839810329068 0.3767539363900264 0.17465857623920616 0.1777063481795155 0.17952551689948207 0.18039145811833493 0.18033884033287065 0.17947872105482737 0.17780225953610726 0.1754115605396283 0.1723092444514919 0.16861680431138554 0.16436913162611547 0.1597433788153975 0.15489910755398878 5.400135604460982 5.6118011555649225 5.802557759458121 5.970721694899724 6.114966276462545 6.23419147992523 6.327495694831607 6.394174898703356 6.433727806425585 6.445861144804229 6.430491484662911 6.38772926139121 6.317767242837342 4.857362423745758 5.052230727022104 5.2286500348133425 5.384769737162814 5.519075570304498 5.630318769634798 5.71748397295392 5.779779439339623 5.816635578959048 5.827703275810567 5.812844237627787 5.772100032881115 5.705620617082002 4.315725855766198 4.492646881295866 4.653260080291081 4.795788691799548 4.9186895880893395 5.020658930920276 5.100626455507904 5.157752719664688 5.191428690174784 5.201273951696279 5.187129762822168 5.149044855602483 5.0872620596844405 3.7800266936563873 3.937965624539532 4.0816351148262795 4.209393142203696 4.319756852381193 4.411442584705774 4.483381960911833 4.534729816956135 4.564869078299516 4.573413037428344 4.5602050183702225 4.525317116923601 4.469058243503522 3.2554364027897944 3.3935899882709784 3.5194821177842064 3.6316211884515845 3.728631870095371 3.8093026191260284 3.8726126060787234 3.9177473978952397 3.944109111466591 3.95132309426598 3.939243094369038 3.9079575926363552 3.857803545069316 2.747358822221904 2.865268649451341 2.972895645105106 3.0689098930400474 3.1520721772569127 3.221278426446945 3.275589603365402 3.314250779909189 3.33670451172503 3.3426003368640815 3.331803608859718 3.3044057036535732 3.260738137237325 2.2614155238018934 2.359044197085346 2.4483150040157313 2.528070648853518 2.5972272624938437 2.654812512111583 2.6999940173346237 2.7320978980054575 2.7506228731775857 2.755250169504122 2.7458538996333783 2.7225129570998146 2.6855287275060444 1.8034542345324946 1.8812393760027173 1.9525055867599415 2.0162744783558817 2.0716295156549274 2.1177459838516937 2.153915447636626 2.179560496089866 2.1942474251819006 2.1976938507674357 2.1897784965222646 2.1705525024472703 2.1402598713989227 1.3795578950380003 1.4384568245335387 1.492553299038119 1.5410455255959337 1.5831889688191643 1.6183151047326647 1.6458501507340713 1.6653233066638296 1.6763764934388352 1.678767091518442 1.6723747412103642 1.6572081908133036 1.6334279541702876 0.9960513251081582 1.0375836150492843 1.0758653194960899 1.1102595149982106 1.1401909221846815 1.1651492136867325 1.184699486381452 1.1984828902351317 1.2062219217807377 1.2077174712686018 1.2028496302521163 1.191575536896832 1.1739413824713492 0.65950700159533 0.6857986509727084 0.7101739960516696 0.7321447938136852 0.7512949626553241 0.7672695857085668 0.7797687652290346 0.7885467788773711 0.7934068233904279 0.7941991655357548 0.7908083086455063 0.7831434931201129 0.7711157129418679 0.3767539364032009 0.39058398103681724 0.4035423391229424 0.41528430251208776 0.4255337071269862 0.43408889566830755 0.4407663568328515 0.44543410371218395 0.4479645941152978 0.44827005680539656 0.4462445355276722 0.4417824289911012 0.43466526437146985 0.15489910757122385 0.1597433788305261 0.16436913162882114 0.16861680432561593 0.17230924446173346 0.1754115605546299 0.17780225950773365 0.17947872103064358 0.18033884031475356 0.18039145809815266 0.17952551687902407 0.17770634815777292 0.1746585762202162
</DataArray>
        <DataArray type="Float64" Name="phi_1" NumberOfComponents="1" format="ascii">