<?xml version="1.0" encoding="utf-8"?>
<VTKFile type="UnstructuredGrid" version="1.0" byte_order="LittleEndian" header_type="UInt64">
  <UnstructuredGrid>
    <Piece NumberOfPoints="721" NumberOfCells="1350">
      <Points>
        <DataArray type="Float64" Name="Points" NumberOfComponents="3" format="ascii">
 0.0 0.0 0.774277090695962 2.5 0.0 0.46105613392878764 5.0 0.0 0.0005419556412335315 3.535533905932737 3.535533905932737 0.0011575872555017626 0.0 5.0 0.000541955687331656 0.0 2.5 0.46105613327795086 2.0 2.0 0.19071287189562605 0.1666666666665221 0.0 0.7745487923836831 0.3333333333330261 0.0 0.768702664507613 0.499999999999206 0.0 0.7617248379519747 0.6666666666653859 0.0 0.749893157954707 0.8333333333315658 0.0 0.7368446649997008 0.9999999999977542 0.0 0.7188986652762691 1.16666666666464 0.0 0.7004130926299724 1.33333333333156 0.0 0.6764030507338324 1.49999999999848 0.0 0.6534091476009275 1.6666666666654 0.0 0.6235571776604512 1.83333333333232 0.0 0.5970837091109896 1.99999999999924 0.0 0.5627801803681983 2.16666666666616 0.0 0.5315654962529367 2.33333333333308 0.0 0.494086760119531 2.666666666666667 0.0 0.42103730368371206 2.833333333333334 0.0 0.3855759928389635 3.000000000000001 0.0 0.34543377560331584 3.166666666666668 0.0 0.3087485322592585 3.333333333333335 0.0 0.2696262210388804 3.500000000000001 0.0 0.2332438612638492 3.666666666666667 0.0 0.19653276816280088 3.833333333333334 0.0 0.1620554815409648 4.000000000000001 0.0 0.12929229276795112 4.166666666666668 0.0 0.09844552218223938 4.333333333333334 0.0 0.07139140083378351 4.5 0.0 0.045725704342644696 4.666666666666667 0.0 0.026952490740992485 4.833333333333334 0.0 0.007473575878624811 4.993147673742279 0.2616797817984178 0.00029927886273998225 4.972609476693919 0.5226423177411343 0.00036833292738723046 4.938441702626058 0.7821723274086402 0.000285164161746613 4.890738003072538 1.039558456895064 0.0002970513551207769 4.829629130485643 1.294095229094244 0.000295210124404718 4.755282579941277 1.545084976597416 0.0003553745878940386 4.667902130567785 1.791839752723645 0.000410792792939437 4.567727286022699 2.033683220298508 0.0003469345667276831 4.455032618844489 2.269952502814015 9.854626129953807e-5 4.330127016950689 2.500000003414746 -1.8799292472329176e-5 4.193352837936671 2.723195177832185 0.00022643411063233597 4.045084970229543 2.938926263726781 0.0007978823190897516 3.885729806269635 3.146601956502879 0.0004128678635640004 3.715724127116278 3.345653032094926 0.00047557637671689744 3.345653031568937 3.715724127589879 0.000475576331351575 3.146601954114183 3.885729808203962 0.0004128679211156165 2.938926259806284 4.04508497307795 0.000797882212641343 2.723195172808738 4.193352841198934 0.00022643414185931465 2.499999997346627 4.330127020454118 -1.8799361064575012e-5 2.269952495131877 4.455032622758733 9.854633250770949e-5 2.03368321031147 4.567727290469214 0.00034693456221785693 1.791839742938779 4.667902134323842 0.0004107927937091211 1.545084968036192 4.755282582722986 0.0003553745994615347 1.294095221971398 4.829629132394204 0.000295210143841999 1.039558451367956 4.89073800424736 0.00029705135281708517 0.7821723229235267 4.938441703336428 0.000285164187141366 0.5226423144640102 4.972609477038358 0.0003683329185514958 0.2616797800910389 4.993147673831758 0.0002992788811995347 0.0 4.833333333333333 0.007473575355453151 0.0 4.666666666666666 0.026952490943339024 0.0 4.499999999999999 0.04572570362916358 0.0 4.333333333333332 0.07139140092678571 0.0 4.166666666666665 0.09844552146495508 0.0 3.999999999999999 0.12929229276184986 0.0 3.833333333333333 0.16205548084122384 0.0 3.666666666666666 0.19653276812717588 0.0 3.499999999999999 0.23324386057311902 0.0 3.333333333333333 0.26962622103294204 0.0 3.166666666666666 0.30874853157130355 0.0 3.0 0.3454337756610073 0.0 2.833333333333333 0.38557599215436006 0.0 2.666666666666667 0.42103730381490895 0.0 2.333333333333333 0.4940867602170191 0.0 2.166666666666666 0.531565495781278 0.0 1.999999999999999 0.5627801804312561 0.0 1.833333333333332 0.5970837087569676 0.0 1.666666666666665 0.623557177738745 0.0 1.499999999999999 0.6534091473127916 0.0 1.333333333333333 0.6764030507552612 0.0 1.166666666666666 0.7004130924659111 0.0 0.9999999999999991 0.7188986653068727 0.0 0.8333333333333326 0.7368446649010816 0.0 0.6666666666666663 0.7498931579775795 0.0 0.4999999999999996 0.7617248379131419 0.0 0.333333333333333 0.768702664513988 0.0 0.1666666666666665 0.7745487923789232 2.033333333333464 1.866666666666144 0.348110677476317 2.066666666666884 1.733333333332463 0.47451464061360354 2.1 1.600000000000001 0.3719741621944302 2.133333333333115 1.466666666667538 0.5139482244823212 2.166666666666231 1.333333333335076 0.37106324945988545 2.199999999999346 1.200000000002614 0.5313377251067686 2.233333333332462 1.066666666670151 0.41015121841654395 2.266666666665752 0.933333333336992 0.49540952107324754 2.299999999999216 0.800000000003136 0.4673500247005236 2.33333333333268 0.66666666666928 0.4720640681208249 2.366666666666144 0.5333333333354242 0.48600778801595956 2.399999999999608 0.4000000000015682 0.4694278627869245 2.433333333333072 0.266666666667712 0.4777558773787131 2.466666666666536 0.1333333333338562 0.46712968837790686 1.866666666666144 2.033333333333464 0.348110680408942 1.733333333332463 2.066666666666884 0.47451465097623585 1.600000000000001 2.1 0.37197415089665326 1.466666666667538 2.133333333333115 0.5139482283443824 1.333333333335076 2.166666666666231 0.37106324269768554 1.200000000002614 2.199999999999346 0.5313377244942363 1.066666666670151 2.233333333332462 0.4101512208090856 0.933333333336992 2.266666666665752 0.49540951934461464 0.800000000003136 2.299999999999216 0.46735002169445583 0.66666666666928 2.33333333333268 0.4720640722174346 0.5333333333354242 2.366666666666144 0.4860077833347073 0.4000000000015682 2.399999999999608 0.4694278649056161 0.266666666667712 2.433333333333072 0.47775587570093586 0.1333333333338562 2.466666666666536 0.46712968819106815 2.102368927062356 2.102368927062356 0.37615753586534967 2.20473785412462 2.20473785412462 0.35839011089799316 2.307106781186236 2.307106781186236 0.24713304926132476 2.409475708247852 2.409475708247852 0.2907418513759202 2.511844635309468 2.511844635309468 0.17034528982595584 2.614213562371448 2.614213562371448 0.25591549197250407 2.716582489433457 2.716582489433457 0.0910807863422461 2.818951416495466 2.818951416495466 0.18813394576809567 2.921320343557995 2.921320343557995 0.06780856608358306 3.023689270620524 3.023689270620524 0.09708228044624416 3.12605819768288 3.12605819768288 0.05383293074951422 3.228427124745271 3.228427124745271 0.03578266424423275 3.330796051807673 3.330796051807673 0.02490493496765354 3.433164978870034 3.433164978870034 0.005166638350036871 0.1644444444443356 0.1644444444444705 0.7749070463151538 0.1622222222221492 0.3288888888889409 0.7695449047240707 0.1599999999999628 0.4933333333334113 0.7622098763244414 0.1577777777777763 0.6577777777778819 0.7515900632382878 0.1555555555555899 0.8222222222223521 0.7375469861891741 0.1533333333334035 0.9866666666668226 0.7218534766602517 0.151111111111217 1.151111111111293 0.7013099523840407 0.1488888888890422 1.315555555555717 0.6815916045488315 0.146666666666879 1.480000000000095 0.6544114113820072 0.1444444444447158 1.644444444444472 0.6312861571023032 0.1422222222225526 1.80888888888885 0.598459581078501 0.1400000000003894 1.973333333333227 0.5689169172194688 0.1377777777782262 2.137777777777606 0.5377124806514549 0.1355555555560427 2.302222222222065 0.5031822432286164 0.3288888888886544 0.1622222222222744 0.7695449047029452 0.3244444444442827 0.3244444444445488 0.763001894947123 0.319999999999911 0.4866666666668231 0.7588839235137719 0.3155555555555392 0.6488888888890976 0.7443954180643648 0.3111111111111676 0.8111111111113717 0.7374525703608568 0.306666666666796 0.9733333333336461 0.7139034939306722 0.3022222222224242 1.135555555555921 0.7055756475230007 0.2977777777780758 1.297777777778102 0.6713695902831132 0.2933333333337505 1.46000000000019 0.6635011739967657 0.2888888888894253 1.622222222222279 0.6197771390436998 0.2844444444451001 1.784444444444368 0.6103782690968477 0.2800000000007747 1.946666666666457 0.5686170236630105 0.2755555555564496 2.108888888888546 0.5439012823843024 0.2711111111120836 2.271111111110798 0.49937676821137766 0.4933333333326708 0.1600000000000783 0.7622098763341167 0.4866666666661354 0.3200000000001565 0.7588839236444571 0.4799999999996 0.4800000000002348 0.7495240019702288 0.4733333333330647 0.6400000000003134 0.7442558278283286 0.4666666666665294 0.8000000000003915 0.7245353594624782 0.4599999999999941 0.9600000000004696 0.7191458647493877 0.4533333333334588 1.120000000000548 0.6875467468822223 0.4466666666669584 1.280000000000487 0.6857679704029327 0.4400000000004927 1.440000000000287 0.6409009631204517 0.433333333334027 1.600000000000086 0.6405623384825568 0.4266666666675613 1.759999999999886 0.5904209841990276 0.4200000000010957 1.919999999999686 0.569858025195426 0.41333333333463 2.079999999999485 0.537685622804302 0.4066666666681035 2.239999999999529 0.5178454646772149 0.6577777777766867 0.1577777777778822 0.7515900632530107 0.648888888887988 0.3155555555557644 0.7443954179026708 0.6399999999992891 0.4733333333336466 0.744255827827779 0.6311111111105903 0.6311111111115291 0.725988963619193 0.6222222222218914 0.7888888888894108 0.728115589304079 0.6133333333331921 0.9466666666672932 0.695475280185635 0.6044444444444933 1.104444444445176 0.7035047432585882 0.5955555555558406 1.262222222222872 0.651572296050454 0.5866666666672347 1.420000000000383 0.6676606266536902 0.5777777777786284 1.577777777777893 0.6032860168548785 0.5688888888900224 1.735555555555404 0.6126793728014227 0.5600000000014165 1.893333333332915 0.5728941774356681 0.5511111111128105 2.051111111110425 0.5505473624184971 0.5422222222241231 2.208888888888262 0.4895875883196167 0.8222222222207032 0.1555555555556862 0.7375469861988059 0.8111111111098406 0.3111111111113722 0.7374
[...]
      <PointData>
        <DataArray type="Float64" Name="w" NumberOfComponents="1" format="ascii">
 11.614156360439429 6.915842008931815 0.008129334618502973 0.017363808832526438 0.00812933530997484 6.915841999169263 2.860693078434391 11.618231885755247 11.530539967614196 11.425872569279619 11.248397369320605 11.052669974995512 10.783479979144037 10.506196389449586 10.146045761007487 9.801137214013913 9.353357664906767 8.956255636664844 8.441702705522975 7.973482443794051 7.411301401792965 6.315559555255681 5.7836398925844525 5.181506634049738 4.631227983888878 4.044393315583206 3.498657918957738 2.9479915224420132 2.430832223114472 1.939384391519267 1.4766828327335908 1.0708710125067527 0.6858855651396705 0.4042873611148873 0.11210363817937216 0.004489182941099734 0.005524993910808457 0.004277462426199195 0.004455770326811654 0.00442815186607077 0.005330618818410579 0.006161891894091554 0.005204018500915246 0.001478193919493071 -0.00028198938708493763 0.0033965116594850396 0.011968234786346274 0.006193017953460006 0.007133645650753462 0.007133644970273625 0.006193018816734247 0.011968233189620144 0.0033965121278897196 -0.0002819904159686252 0.0014781949876156424 0.005204018433267854 0.0061618919056368165 0.005330618991923021 0.004428152157629985 0.004455770292256278 0.00427746280712049 0.005524993778272437 0.004489183217993021 0.11210363033179727 0.40428736415008537 0.6858855544374537 1.0708710139017856 1.4766828219743262 1.939384391427748 2.4308322126183577 2.947991521907638 3.4986579085967855 4.044393315494131 4.631227973569553 5.1815066349151095 5.783639882315401 6.315559557223634 7.411301403255286 7.973482436719169 8.441702706468842 8.956255631354514 9.353357666081175 9.801137209691875 10.146045761328917 10.506196386988666 10.783479979603092 11.052669973516224 11.248397369663692 11.425872568697129 11.53053996770982 11.618231885683848 5.221660162144755 7.1177196092040536 5.579612432916453 7.709223367234818 5.565948741898282 7.970065876601528 6.152268276248159 7.431142816098713 7.010250370507854 7.0809610218123735 7.290116820239393 7.041417941803868 7.166338160680697 7.006945325668603 5.22166020613413 7.117719764643538 5.579612263449799 7.709223425165736 5.565948640465283 7.9700658674135445 6.152268312136284 7.431142790169219 7.010250325416838 7.08096108326152 7.290116750020609 7.041417973584242 7.166338135514038 7.006945322866022 5.642363037980245 5.375851663469898 3.7069957389198716 4.361127770638802 2.5551793473893376 3.8387323795875608 1.3662117951336916 2.822009186521435 1.017128491253746 1.4562342066936624 0.8074939612427133 0.5367399636634913 0.3735740245148031 0.07749957525055307 11.623605694727308 11.54317357086106 11.433148144866621 11.273850948574317 11.063204792837611 10.827802149903775 10.519649285760611 10.223874068232472 9.816171170730108 9.469292356534547 8.976893716177514 8.533753758292033 8.065687209771824 7.547733648429245 11.543173570544178 11.445028424206845 11.383258852706579 11.165931270965473 11.061788555412852 10.708552408960083 10.583634712845011 10.070543854246697 9.952517609951485 9.296657085655497 9.155674036452716 8.529255354945157 8.158519235764535 7.490651523170665 11.433148145011751 11.383258854666856 11.242860029553432 11.163837417424928 10.868030391937172 10.787187971240815 10.313201203233334 10.28651955604399 9.613514446806777 9.608435077238353 8.856314762985413 8.54787037793139 8.06528434206453 7.7676819701582245 11.273850948795161 11.165931268540062 11.163837417416685 10.889834454287895 10.921733839561186 10.432129202784525 10.552571148878824 9.77358444075681 10.014909399805353 9.049290252823177 9.19019059202134 8.593412661535021 8.258210436277457 7.343813824794251 11.063204792982088 11.061788560627928 10.868030390253281 10.921733843050983 10.475482784651792 10.648878862251383 9.89133699384026 10.280691977706788 9.223828646564698 9.631804877312447 8.690332496597161 8.351753354581087 7.823323493066526 8.009505485753351 10.827802150348026 10.708552405149014 10.787187971362671 10.432129203306014 10.64887885670042 9.97235356962646 10.408145536263559 9.321427793155683 9.90817073307345 8.775747063406824 8.902895085704877 8.6650862088537 8.382701257717441 7.105411709897256 10.51964928703148 10.583634719278823 10.313201203830108 10.55257115123602 9.89133699713225 10.408145543596957 9.285290466670928 10.139604164901213 8.764321337245391 9.376776840187166 8.61076267879979 8.002620481437466 7.2608521078569925 7.987919635213638 10.223874068283664 10.070543850417545 10.28651955543881 9.773584439979153 10.28069197812696 9.321427777484983 10.139604175982704 8.79933544287653 9.498733723862415 8.656976846197391 8.20067120061423 8.650422635576625 8.50491321854066 7.203906986606782 9.816171171069282 9.952517624118117 9.613514435752492 10.014909427714892 9.223828610211411 9.908170802558928 8.764321267751527 9.498733785298423 8.693488292451113 8.400010687871012 8.903949404856894 7.4436614915055435 6.66332655084414 7.194119641186055 9.469292358574853 9.29665707647174 9.608435086399528 9.04929023350249 9.631804907162856 8.775747009436499 9.376776880087187 8.656976838814447 8.400010616620662 8.886543731339348 7.291221866592565 8.076993003228932 8.793421850640058 7.515299806473104 8.976893720341094 9.15567404638502 8.856314761859256 9.190190614516702 8.690332463552155 8.902895155339696 8.610762628218426 8.200671225909801 8.903949440850473 7.291221938289172 8.493175210376673 7.822735031747691 5.552324806332516 6.129834305179833 8.533753758800783 8.529255346921685 8.547870392118387 8.59341262029097 8.35175342878446 8.66508609410746 8.002620581417721 8.650422565961765 7.443661513473855 8.076992875534492 7.8227350477928965 5.940096702652696 9.096258371935043 8.040906749251535 8.065687215261665 8.158519250880378 8.065284325885923 8.258210497635815 7.8233234065656045 8.382701378669404 7.260852038121607 8.504913237889006 6.663326595428982 8.793421887590016 5.552324917047062 9.09625828018606 5.511220168609751 3.9965273966658157 7.5477336500224546 7.490651509767237 7.767682001904853 7.343813756407935 8.009505578778784 7.105411618756176 7.987919658329114 7.203907022442977 7.1941195785895005 7.5152997769499885 6.129834243262499 8.04090670185938 3.9965275445702657 10.961186754489571 6.441238633675365 6.4497654380487734 6.6068717811275794 6.492414378922958 6.614199902728272 6.638279555887157 6.243478718056827 7.065488820894269 5.396748166813694 7.331595309955798 4.9285379678753 6.7209295074983455 4.955475359823018 7.621333784178856 5.88598370342815 5.990988879387179 5.944136495944796 6.077178502598311 5.961896948653071 5.9106110429950025 6.100732211812498 5.337518691129814 6.567831287501278 4.566440464192117 6.6994414460492395 4.533509654293809 5.3238978904912075 3.4090377213410505 5.285711291030311 5.290080448895802 5.424738358413125 5.337781426760776 5.436084248441413 5.435270383956942 5.196118364777695 5.709351811875262 4.449773897543732 6.134611714116724 3.617087668857417 5.947418634067586 4.60249408290696 5.4243527701162115 4.721989294938342 4.815363841760972 4.782086367578113 4.872075800378022 4.803732776214726 4.7299817209757 4.872123874727381 4.30232819978903 5.2643082587044665 3.518173947729253 5.803892475448443 2.7707375938904257 4.489903830877506 3.1762225894737224 4.128882542676976 4.12160437660633 4.231206508346895 4.175506533312802 4.23095987592701 4.259671668725318 4.07253782397564 4.428844207913538 3.4938425193524236 4.800448419267805 2.535501470679473 5.395865276336159 2.9237242552393723 4.3647732891047815 3.571824663943872 3.654157769895583 3.631971187494807 3.684943974027173 3.6517744748162424 3.5655815817417347 3.6628804595449203 3.2799225295102024 3.913105044508588 2.729941587358668 4.425096082080284 1.602963831014662 3.8995635790819425 2.0115717712980263 3.0121502724254987 2.9918407813437375 3.078794320012032 3.0395180738031473 3.075726428386619 3.1059263730757625 2.9942690625664694 3.1850784440974227 2.617168979178661 3.3473186332301266 1.945122739211782 4.096858026515901 1.9220499080680273 3.3368707223188925 2.4847477614056586 2.557177714123366 2.537711822565069 2.5708607758201945 2.548151603200789 2.4749371031090264 2.515740414053866 2.30351025693122 2.646636723383336 2.0364712784925327 2.902068464952619 1.093053723269226 2.619454553894738 1.496291420966731 1.9849457685900573 1.9513917633893991 2.018290414922359 1.9864785314952238 2.0145531852802843 2.0387134233545616 1.9919713571700166 2.0684819197169064 1.764964931786098 2.063044097687778 1.4329453782143615 2.639105729019257 1.4730444317503637 1.8968824518157212 1.512537342598352 1.5750589975122267 1.556931538670456 1.5759384587057015 1.5581233288749679 1.4980703436408052 1.5031816875674093 1.401941170335859 1.5757039093796166 1.3336842311228307 1.6317790000537122 0.6938081606403621 1.3590608164772557 1.2172621326235116 1.0974214752200462 1.0615995657638404 1.102553716078106 1.0810885678841777 1.098935708120538 1.1221266328424546 1.1162438095415033 1.132524531211973 0.984561066495892 1.0456974780103452 0.8847967288633884 1.4274397354992678 0.9993618390905147 0.8102929431558433 0.7146413205198167 0.7560900952337781 0.7486983072373327 0.7520826949697602 0.7412574403459793 0.6952112928409664 0.6854638921864173 0.6556994860405901 0.7378004073574509 0.6910777825859702 0.6930876124999545 0.3436587831633077 0.531032244660162 0.686437137080031 0.40392443185917665 0.3927047572272216 0.39667345596527964 0.3918347651875592 0.3990365208302656 0.41573272021691315 0.4286001775839759 0.41058314495771886 0.3592650477820795 0.3220003455708855 0.35825309905996405 0.46626806896152173 0.40721555426487127 0.3006414791799689 0.15676250982618975 0.13402262398542186 0.1527831349249997 0.14727943579780073 0.15038653666385587 0.14510607525921465 0.14311661170274637 0.15653733297708475 0.18605697323839923 0.18514681348113848 0.15442983886784595 0.12765260755494132 0.16231421443950136 0.10879417491948849 7.621333904170693 4.955475072389155 6.720929683992778 4.928537912152644 7.331595370532493 5.396748199890907 7.065488785832486 6.243478718659512 6.6382796030179305 6.614199838968231 6.492414434426807 6.606871746669745 6.449765454051829 6.441238629392906 3.4090374885271695 5.323898163892062 4.5335095852705996 6.699441404379023 4.56644048617725 6.567831190597184 5.337518748968221 6.100732192335827 5.910611002294074 5.961896993800945 6.077178448095385 5.944136519287018 5.990988855716049 5.885983699233493 5.424353011551497 4.602493946113555 5.947418532085042 3.617087821189099 6.134611606572021 4.449774042141717 5.709351722550784 5.196118395962584 5.435270402576597 5.436084209275675 5.337781465102731 5.424738330453311 5.290080463491956 5.285711286085148 3.1762224246789303 4.489903778417206 2.7707378481449427 5.8038922386006515 3.5181741014422787 5.264308080760444 4.302328298733993 4.872123825199607 4.729981708245615 4.803732796655692 4.872075761212685 4.782086383180284 4.815363818494536 4.721989290487817 4.364773339789518 2.9237244708446464 5.3958649237969984 2.535501736298175 4.800448247672738 3.493842699473853 4.428844100626048 4.072537873404448 4.259671665918336 4.230959856033663 4.175506558160308 4.2312064864952275 4.121604389723567 4.128882536770912 2.011571820768238 3.8995632613860858 1.60296420970685 4.425095826083422 2.7299417420517758 3.9131048686921557 3.2799226270555253 3.6628804021218375 3.56558158322781 3.6517744803855297 3.684943945050076 3.6319711972667785 3.654157747209838 3.5718246597096415 3.3368706108198523 1.9220502553536774 4.096857671032686 1.9451229513004213 3.347318503464012 2.617169133105884 3.185078350396811 2.9942691126811054 3.105926361178156 3.075726419403298 3.0395180905445582 3.0787943024617563 2.9918407935902835 3.012150265469605 1.4962915499770204 2.6194542287689466 1.0930540194052147 2.902068303203649 2.0364713700539028 2.6466365859626437 2.3035103349975548 2.5157403604003603 2.4749371110714056 2.5481516001491857 2.570860753950998 2.5377118282029363 2.557177692335374 2.4847477577274293 1.8968823381149615 1.4730446991285682 2.639105501790492 1.4329454823915413 2.063044037835528 1.764965041810268 2.068481850352047 1.9919714001822277 2.0387134087771592 2.0145531830784527 1.986478543121397 2.0182904009161584 1.951391775231928 1.9849457607446543 1.2172622120253216 1.3590606193443935 0.6938083152706348 1.6317789411730752 1.3336842571723648 1.5757038172535507 1.401941222699581 1.503181644098808 1.4980703547156284 1.5581233197415314 1.5759384441423967 1.5569315400695352 1.5750589783004094 1.5125373395788806 0.810292903136753 0.9993619629326643 1.4274396453956302 0.884796744212599 1.0456974751038328 0.9845611278747661 1.1325244956488663 1.1162438363930045 1.1221266223245165 1.0989357093184866 1.0810885757367925 1.1025537064830209 1.0615995763672426 1.097421467482126 0.6864371489668796 0.531032183257977 0.34365882289396776 0.6930876148794503 0.6910777740381525 0.7378003600436889 0.6556995060905924 0.6854638688863739 0.6952113014579298 0.7412574286961988 0.7520826889728341 0.7486983036632618 0.7560900827950446 0.7146413173606424 0.30064148187080153 0.40721557030193156 0.46626806815730476 0.3582530783995354 0.3220003533516986 0.35926505784324453 0.41058315174057863 0.4286001778202834 0.41573272104392195 0.3990365207552573 0.39183476863175226 0.39667345381083813 0.39270476246710545 0.4039244269653218 0.10879418179888824 0.16231421357355802 0.1276526235654039 0.1544298228041712 0.185146830876262 0.18605696470441943 0.15653733610720835 0.14311661170974396 0.14510607269472514 0.15038653181853143 0.1472794377562036 0.15278312790138343 0.1340226283966808 0.1567625032033902
</DataArray>
      </PointData>
    </Piece>
  </UnstructuredGrid>
</VTKFile>
