<?xml version="1.0" encoding="utf-8"?>
<VTKFile type="UnstructuredGrid" version="1.0" byte_order="LittleEndian" header_type="UInt64">
  <UnstructuredGrid>
    <Piece NumberOfPoints="721" NumberOfCells="1350">
      <Points>
        <DataArray type="Float64" Name="Points" NumberOfComponents="3" format="ascii">
 0.0 0.0 0.7746918366826082 2.5 0.0 0.45946806207340374 5.0 0.0 -1.3518976093747475e-6 3.535533905932737 3.535533905932737 -7.625814457746315e-7 0.0 5.0 -1.3518970798354299e-6 0.0 2.5 0.45946806180719313 2.0 2.0 0.38492226819363523 0.1666666666665221 0.0 0.7731209933645272 0.3333333333330261 0.0 0.7683707816786725 0.499999999999206 0.0 0.7605304111950146 0.6666666666653859 0.0 0.7495758322767068 0.8333333333315658 0.0 0.7356503033314395 0.9999999999977542 0.0 0.718754841729566 1.16666666666464 0.0 0.699098083754228 1.33333333333156 0.0 0.6766902395963115 1.49999999999848 0.0 0.6518154822138893 1.6666666666654 0.0 0.6244720525170051 1.83333333333232 0.0 0.5950374937982639 1.99999999999924 0.0 0.5635027847574532 2.16666666666616 0.0 0.5303068058468725 2.33333333333308 0.0 0.49542129977973076 2.666666666666667 0.0 0.42228965783662153 2.833333333333334 0.0 0.3846050340838107 3.000000000000001 0.0 0.3464238229670932 3.166666666666668 0.0 0.3083055090857917 3.333333333333335 0.0 0.2704382577035257 3.500000000000001 0.0 0.2333162724881505 3.666666666666667 0.0 0.1972399093675104 3.833333333333334 0.0 0.1626576753978585 4.000000000000001 0.0 0.12997495301664155 4.166666666666668 0.0 0.0996111319291234 4.333333333333334 0.0 0.07203292173077488 4.5 0.0 0.04771934866081378 4.666666666666667 0.0 0.027190779879834523 4.833333333333334 0.0 0.01081536405810053 4.993147673742279 0.2616797817984178 -4.692025909291602e-6 4.972609476693919 0.5226423177411343 -3.2964300246574043e-6 4.938441702626058 0.7821723274086402 -4.8333446224985435e-6 4.890738003072538 1.039558456895064 -4.749590251340831e-6 4.829629130485643 1.294095229094244 -4.924251301863536e-6 4.755282579941277 1.545084976597416 -4.451049357550728e-6 4.667902130567785 1.791839752723645 -4.870300342062669e-6 4.567727286022699 2.033683220298508 -8.067561354607964e-6 4.455032618844489 2.269952502814015 -1.2832207872505527e-5 4.330127016950689 2.500000003414746 -1.2962039333346012e-5 4.193352837936671 2.723195177832185 -8.876685155313642e-6 4.045084970229543 2.938926263726781 -7.463105409633395e-6 3.885729806269635 3.146601956502879 -9.85858096040866e-6 3.715724127116278 3.345653032094926 -2.8366213753373302e-6 3.345653031568937 3.715724127589879 -2.836622218554601e-6 3.146601954114183 3.885729808203962 -9.858581822193175e-6 2.938926259806284 4.04508497307795 -7.463107468074679e-6 2.723195172808738 4.193352841198934 -8.876683496611368e-6 2.499999997346627 4.330127020454118 -1.2962041460066846e-5 2.269952495131877 4.455032622758733 -1.2832207375692505e-5 2.03368321031147 4.567727290469214 -8.067561609663431e-6 1.791839742938779 4.667902134323842 -4.870300376046119e-6 1.545084968036192 4.755282582722986 -4.451048853201569e-6 1.294095221971398 4.829629132394204 -4.924250611016207e-6 1.039558451367956 4.89073800424736 -4.7495901228644e-6 0.7821723229235267 4.938441703336428 -4.833343883919351e-6 0.5226423144640102 4.972609477038358 -3.296430155171291e-6 0.2616797800910389 4.993147673831758 -4.692024920327671e-6 0.0 4.833333333333333 0.010815363849675373 0.0 4.666666666666666 0.027190779680568964 0.0 4.499999999999999 0.047719348367086294 0.0 4.333333333333332 0.07203292143405236 0.0 4.166666666666665 0.09961113157973281 0.0 3.999999999999999 0.1299749526736184 0.0 3.833333333333333 0.16265767502692208 0.0 3.666666666666666 0.19723990901545888 0.0 3.499999999999999 0.23331627212335818 0.0 3.333333333333333 0.2704382573683788 0.0 3.166666666666666 0.3083055087460176 0.0 3.0 0.3464238226639626 0.0 2.833333333333333 0.38460503377993555 0.0 2.666666666666667 0.42228965757805076 0.0 2.333333333333333 0.49542129956783054 0.0 2.166666666666666 0.5303068056362433 0.0 1.999999999999999 0.563502784588591 0.0 1.833333333333332 0.5950374936404618 0.0 1.666666666666665 0.6244720523937771 0.0 1.499999999999999 0.6518154821026007 0.0 1.333333333333333 0.6766902395146931 0.0 1.166666666666666 0.699098083685888 0.0 0.9999999999999991 0.7187548416834537 0.0 0.8333333333333326 0.7356503032966477 0.0 0.6666666666666663 0.7495758322570782 0.0 0.4999999999999996 0.7605304111827793 0.0 0.333333333333333 0.7683707816739348 0.0 0.1666666666666665 0.7731209933639736 2.033333333333464 1.866666666666144 0.4005015483120734 2.066666666666884 1.733333333332463 0.414858729802687 2.1 1.600000000000001 0.42782694482404093 2.133333333333115 1.466666666667538 0.43937165597276556 2.166666666666231 1.333333333335076 0.44928863928631474 2.199999999999346 1.200000000002614 0.4577812395981821 2.233333333332462 1.066666666670151 0.4645550457971372 2.266666666665752 0.933333333336992 0.46978385834914155 2.299999999999216 0.800000000003136 0.47336163574841944 2.33333333333268 0.66666666666928 0.47526442262320867 2.366666666666144 0.5333333333354242 0.47548726064412583 2.399999999999608 0.4000000000015682 0.4740031160658874 2.433333333333072 0.266666666667712 0.4708250366054739 2.466666666666536 0.1333333333338562 0.46598832839924176 1.866666666666144 2.033333333333464 0.40050154829462187 1.733333333332463 2.066666666666884 0.41485872976923155 1.600000000000001 2.1 0.4278269447590718 1.466666666667538 2.133333333333115 0.43937165586433635 1.333333333335076 2.166666666666231 0.44928863915026535 1.200000000002614 2.199999999999346 0.4577812394499426 1.066666666670151 2.233333333332462 0.46455504564646766 0.933333333336992 2.266666666665752 0.4697838581752058 0.800000000003136 2.299999999999216 0.4733616355529888 0.66666666666928 2.33333333333268 0.47526442242058314 0.5333333333354242 2.366666666666144 0.4754872604236872 0.4000000000015682 2.399999999999608 0.4740031158304106 0.266666666667712 2.433333333333072 0.4708250363629117 0.1333333333338562 2.466666666666536 0.4659883281429146 2.102368927062356 2.102368927062356 0.3520410276126772 2.20473785412462 2.20473785412462 0.31854226697577187 2.307106781186236 2.307106781186236 0.28569910799924636 2.409475708247852 2.409475708247852 0.2527712733267214 2.511844635309468 2.511844635309468 0.2209224430212919 2.614213562371448 2.614213562371448 0.18981743595697564 2.716582489433457 2.716582489433457 0.15981264683228438 2.818951416495466 2.818951416495466 0.13162431996550225 2.921320343557995 2.921320343557995 0.10486111418676042 3.023689270620524 3.023689270620524 0.08049681836819719 3.12605819768288 3.12605819768288 0.05834582887098959 3.228427124745271 3.228427124745271 0.03908101659169156 3.330796051807673 3.330796051807673 0.022721687828536122 3.433164978870034 3.433164978870034 0.009206462584150067 0.1644444444443356 0.1644444444444705 0.7716310085098196 0.1622222222221492 0.3288888888889409 0.7670581363701775 0.1599999999999628 0.4933333333334113 0.7594669038124088 0.1577777777777763 0.6577777777778819 0.7488532292904758 0.1555555555555899 0.8222222222223521 0.7353456929893541 0.1533333333334035 0.9866666666668226 0.7189361819688075 0.151111111111217 1.151111111111293 0.6998356193181776 0.1488888888890422 1.315555555555717 0.6780312094612547 0.146666666666879 1.480000000000095 0.6538289106565459 0.1444444444447158 1.644444444444472 0.6271829159584967 0.1422222222225526 1.80888888888885 0.5985354229458787 0.1400000000003894 1.973333333333227 0.5677334832715378 0.1377777777782262 2.137777777777606 0.5352985349927678 0.1355555555560427 2.302222222222065 0.5011750245482594 0.3288888888886544 0.1622222222222744 0.7670581363748664 0.3244444444442827 0.3244444444445488 0.7627438243743977 0.319999999999911 0.4866666666668231 0.7555111172697273 0.3155555555555392 0.6488888888890976 0.745316403590768 0.3111111111111676 0.8111111111113717 0.7323359376313945 0.306666666666796 0.9733333333336461 0.7164917162200097 0.3022222222224242 1.135555555555921 0.6980719537783834 0.2977777777780758 1.297777777778102 0.6769651416702245 0.2933333333337505 1.46000000000019 0.6535432758729909 0.2888888888894253 1.622222222222279 0.6276999773441456 0.2844444444451001 1.784444444444368 0.5998317490725574 0.2800000000007747 1.946666666666457 0.5699097784373544 0.2755555555564496 2.108888888888546 0.5384096429182377 0.2711111111120836 2.271111111110798 0.5051830278511856 0.4933333333326708 0.1600000000000783 0.7594669038235212 0.4866666666661354 0.3200000000001565 0.7555111172777383 0.4799999999996 0.4800000000002348 0.7486964961691602 0.4733333333330647 0.6400000000003134 0.7390430162158047 0.4666666666665294 0.8000000000003915 0.7266324868374331 0.4599999999999941 0.9600000000004696 0.7115020132033275 0.4533333333334588 1.120000000000548 0.6937785839063105 0.4466666666669584 1.280000000000487 0.6735296413568631 0.4400000000004927 1.440000000000287 0.6509214681368305 0.433333333334027 1.600000000000086 0.6260263736924555 0.4266666666675613 1.759999999999886 0.5991157504693236 0.4200000000010957 1.919999999999686 0.5701806139474493 0.41333333333463 2.079999999999485 0.539588485393495 0.4066666666681035 2.239999999999529 0.5073749290979819 0.6577777777766867 0.1577777777778822 0.7488532293096337 0.648888888887988 0.3155555555557644 0.7453164036040583 0.6399999999992891 0.4733333333336466 0.7390430162235903 0.6311111111105903 0.6311111111115291 0.7299874383527316 0.6222222222218914 0.7888888888894108 0.7182944687570948 0.6133333333331921 0.9466666666672932 0.7039095710935102 0.6044444444444933 1.104444444445176 0.6870636339525049 0.5955555555558406 1.262222222222872 0.6676753039353456 0.5866666666672347 1.420000000000383 0.6460610227773347 0.5777777777786284 1.577777777777893 0.6221450975926015 0.5688888888900224 1.735555555555404 0.596251800191452 0.5600000000014165 1.893333333332915 0.5684011337951701 0.5511111111128105 2.051111111110425 0.5389322893701626 0.5422222222241231 2.208888888888262 0.5078193596735378 0.8222222222207032 0.1555555555556862 0.7353456930234911 0.8111111111098406 0.31111111111
[...]
      <PointData>
        <DataArray type="Float64" Name="w" NumberOfComponents="1" format="ascii">
 11.620377550239123 6.892020931101056 -2.0278464140621212e-5 -1.1438721686619473e-5 -2.027845619753145e-5 6.892020927107897 5.773834022904529 11.596814900467908 11.525561725180086 11.407956167925219 11.243637484150602 11.034754549971593 10.78132262594349 10.48647125631342 10.150353593944672 9.77723223320834 9.367080787755077 8.925562406973958 8.452541771361798 7.954602087703087 7.431319496695961 6.334344867549323 5.76907551125716 5.1963573445063975 4.624582636286875 4.056573865552886 3.4997440873222576 2.958598640512656 2.4398651309678776 1.9496242952496232 1.494166978936851 1.0804938259616232 0.7157902299122068 0.40786169819751783 0.16223046087150797 -7.038038863937403e-5 -4.944645036986106e-5 -7.250016933747815e-5 -7.124385377011246e-5 -7.386376952795305e-5 -6.676574036326092e-5 -7.305450513094003e-5 -0.00012101342031911946 -0.0001924831180875829 -0.0001944305900001902 -0.00013315027732970462 -0.00011194658114450093 -0.0001478787144061299 -4.254932063005995e-5 -4.254933327831902e-5 -0.00014787872733289763 -0.00011194661202112019 -0.00013315025244917052 -0.0001944306219010027 -0.0001924831106353876 -0.00012101342414495148 -7.305450564069177e-5 -6.676573279802353e-5 -7.386375916524311e-5 -7.1243851842966e-5 -7.250015825879027e-5 -4.944645232756936e-5 -7.038037380491507e-5 0.1622304577451306 0.40786169520853444 0.7157902255062945 1.0804938215107855 1.4941669736959922 1.9496242901042757 2.439865125403831 2.958598635231883 3.4997440818503724 4.056573860525682 4.624582631190264 5.196357339959439 5.769075506699033 6.334344863670761 7.431319493517458 7.95460208454365 8.452541768828866 8.925562404606927 9.367080785906657 9.77723223153901 10.150353592720396 10.48647125528832 10.781322625251805 11.034754549449715 11.243637483856174 11.40795616774169 11.525561725109021 11.596814900459604 6.007523224681101 6.222880947040305 6.417404172360614 6.590574839591484 6.739329589294721 6.866718593972732 6.968325686957058 7.046757875237123 7.100424536226291 7.12896633934813 7.132308909661887 7.110046740988311 7.062375549082109 6.989824925988627 6.007523224419328 6.222880946538473 6.417404171386077 6.590574837965045 6.73932958725398 6.866718591749139 6.968325684697015 7.046757872628087 7.100424533294833 7.128966336308747 7.132308906355308 7.110046737456159 7.062375545443675 6.989824922143718 5.280615414190158 4.778134004636578 4.285486619988696 3.7915690999008205 3.3138366453193786 2.8472615393546348 2.397189702484266 1.974364799482534 1.5729167128014063 1.207452275522958 0.8751874330648438 0.5862152488753734 0.34082531742804184 0.13809693876225101 11.574465127647294 11.505872045552662 11.392003557186131 11.232798439357138 11.030185394840313 10.784042729532112 10.497534289772664 10.170468141918821 9.807433659848188 9.407743739377452 8.97803134418818 8.516002249073068 8.029478024891517 7.51762536822389 11.505872045622997 11.441157365615965 11.33266675904591 11.17974605386152 10.985039064470918 10.747375743300147 10.471079306675751 10.154477125053367 9.803149138094863 9.415499660162185 8.997476236088362 8.548646676560315 8.076144643773565 7.577745417767785 11.392003557352819 11.332666759166075 11.230447442537404 11.085645243237071 10.899487302561496 10.672530198049913 10.406678758594659 10.102944620352947 9.763822022052457 9.390395605386832 8.986736257039855 8.55270920921174 8.093827280902426 7.610623936469728 11.232798439644506 11.179746054060875 11.085645243353854 10.949811575290974 10.774417031356421 10.558643566402653 10.305954509287574 10.015129559030184 9.69091534166002 9.332176463889022 8.94377700287178 8.526017006927551 8.083984340552439 7.617290395103066 11.030185395352365 10.985039064925587 10.89948730289117 10.77441703156244 10.609753503341258 10.407576508642995 10.167534146100817 9.892981866487636 9.583129920698843 9.24208069092095 8.870164998666349 8.470495278735658 8.04471629189632 7.597075314086062 10.784042730198646 10.747375743866902 10.67253019853529 10.558643566771735 10.407576508798357 10.218772322664035 9.994868070572057 9.735161095646859 9.443310760578655 9.119197510347954 8.76557120562623 8.384891551573595 7.978753648068126 7.550056080632505 10.497534290780877 10.471079307602148 10.406678759387649 10.305954509944119 10.167534146554779 9.994868070869709 9.785559767807644 9.54500164200118 9.269628453558495 8.965763772525596 8.631068148624154 8.270807761096764 7.883351152337382 7.476601405559319 10.170468143153593 10.15447712607016 10.102944621372732 10.01512955984229 9.892981867176822 9.735161096061546 9.545001642248844 9.320482571738935 9.065991636597325 8.780843298124605 8.4670837477971 8.127782725200362 7.763256740614146 7.376680234418191 9.80743366149527 9.80314913960317 9.763822023402534 9.690915342925537 9.583129921628819 9.443310761537683 9.269628453983813 9.06599163702355 8.830809773884521 8.566570657260158 8.275328307599295 7.956901443638923 7.614328714011549 7.250299111559775 9.407743741144381 9.41549966184367 9.390395606961592 9.332176465301087 9.242080692187237 9.119197511318486 8.965763773330092 8.780843298722953 8.566570657318344 8.324724536195228 8.054591481204845 7.76014373420049 7.442143317578232 7.101062354780299 8.978031346468523 8.997476238310307 8.986736259046314 8.943777004776472 8.870165000247235 8.765571207193402 8.631068149723516 8.467083748762008 8.275328308318928 8.054591481739303 7.808979935111445 7.537184356235601 7.2419117201784236 6.924959230805136 8.516002251512534 8.548646678909478 8.55270921144938 8.526017008947681 8.470495280706292 8.384891553066042 8.270807762620306 8.127782726295319 7.956901444440006 7.760143734531159 7.537184356528142 7.290372380602335 7.021613833040703 6.729762706741121 8.02947802795204 8.076144646685387 8.093827283655175 8.083984343152947 8.044716294163315 7.978753650336318 7.883351154124356 7.763256742220674 7.614328715460743 7.442143318849408 7.241911720952941 7.02161383328646 6.772345011913761 6.5092972555068105 7.517625371337071 7.5777454208107 7.610623939345648 7.617290397789317 7.597075316678487 7.55005608276807 7.476601407670874 7.3766802361467825 7.250299112877264 7.101062355591959 6.92495923163671 6.729762707363437 6.509297255968059 6.274268830721735 6.427575750391542 6.497350817324617 6.543161077780109 6.564942267999339 6.562625525215668 6.5358507969330795 6.485140695899258 6.4097018539698745 6.310577352627235 6.190102435801173 6.045707923257355 5.884705689741149 5.701780129129036 5.501515766741884 5.857524653685467 5.923328890561235 5.9664249674592975 5.9864199587514575 5.982666508891356 5.956575720276342 5.906962281682697 5.836624236571418 5.744831013488474 5.630246934124083 5.498376129531094 5.340666190252627 5.169357810601013 4.979522829014006 5.2776078436762885 5.338541220018563 5.378874754108745 5.397278966255533 5.395690145000868 5.37118669929784 5.327161810698002 5.259746105547519 5.172651084427614 5.067378111051145 4.94144888429518 4.80516269263512 4.646694927797709 4.473949070073316 4.69981346009132 4.755719852516201 4.7921932348271215 4.808818123226997 4.80481454261366 4.781739102781128 4.738749413434907 4.678665188651863 4.6009165635731595 4.5033352829334765 4.392032160531741 4.256110306605105 4.114728505157249 3.9583166006080384 4.1230070662529315 4.172337462491979 4.205760875682784 4.219745506739248 4.218365665337981 4.197447861654107 4.160837596873626 4.1046801965926845 4.032382938787581 3.946346654483408 3.843774447469333 3.7368280820807733 3.6055575015174113 3.465688662643853 3.5591115601722216 3.603097536302179 3.632005827541968 3.643794571862545 3.640214444811186 3.619705832454571 3.585775564966849 3.5365769087918513 3.476724421879915 3.398394137426803 3.311508015413853 3.2006387561607053 3.0953272331714103 2.973065045112472 3.0085942575459454 3.0447717750649135 3.070389160787184 3.0791657104289647 3.0777982119714804 3.0608079036933966 3.0326800122478006 2.9893905456952092 2.9337179279931416 2.8688628091858477 2.7932953013470425 2.716151517265167 2.616128716872121 2.5110996329764 2.482711611512183 2.5137985228211726 2.5346029843612077 2.541084048217913 2.5377870345356226 2.5202259530842985 2.495698041030174 2.458724975315102 2.4177353711924363 2.360636763656181 2.298686893992825 2.217212207070782 2.1453389884209875 2.0622911208366985 1.9836296445760115 2.006518648864228 2.0240628455924674 2.0274807768995693 2.0260611287874095 2.0128977016400014 1.994228269114994 1.9637690476577756 1.9258761427329953 1.8816557333518635 1.8338146780497209 1.7852375183963236 1.7197512675172335 1.6447219183227797 1.5216124813881162 1.5411236814765819 1.5537419428431871 1.5553709169386647 1.552085990319822 1.53787296341712 1.5225679606741338 1.4982262113976244 1.4752426842859443 1.4388780919609239 1.4008959375167764 1.3477792847668146 1.3075896377140417 1.2624862364560345 1.1011638987737375 1.1129439884281858 1.1226758252042095 1.1217918359691805 1.1201642273371786 1.1114148283025247 1.102408550295004 1.0844475970011571 1.0632836139309052 1.0362740958052534 1.0135261049838513 0.9904870361717291 0.9580857328736132 0.9107183533013248 0.7313113289393277 0.7422352679625049 0.7476207090885834 0.7459404463818831 0.7432046167625596 0.7332386389383512 0.726579239452527 0.714409331465734 0.7066021695530734 0.6868180366114183 0.66593526313069 0.6391584858553432 0.6271839153976037 0.6114539434102372 0.41950975931460127 0.4211630893992626 0.4240770421122974 0.42268077455117997 0.42304269984401993 0.4216629265937841 0.42180909612268125 0.41428047246027755 0.40751035431428806 0.39042829181078165 0.38587785410678066 0.3744948499630494 0.3763579468441947 0.356387783615009 0.17599629635213598 0.1708549176922026 0.17532723387096985 0.17431815186986238 0.17603533518508083 0.17715591901058086 0.17902623667301104 0.1812230604381999 0.1830905260061251 0.1756727424946481 0.17189944928738649 0.17521086249907536 0.17427331369644386 0.14533555650001176 5.50151576667958 5.701780128111331 5.884705688675988 6.045707922241652 6.190102434737798 6.310577351087226 6.409701851810921 6.4851406933567555 6.535850794292513 6.562625522093516 6.56494226469255 6.543161074296919 6.497350813611989 6.427575746591379 4.979522828067993 5.169357810417909 5.340666189281103 5.498376127857431 5.630246931623548 5.744831010781207 5.836624233931763 5.906962278814982 5.95657571676914 5.982666505395493 5.986419954793465 5.966424963290609 5.923328886238171 5.857524649166358 4.473949070494631 4.64669492661841 4.80516269133571 4.94144888307628 5.067378109993735 5.172651083021094 5.259746103280143 5.327161807865138 5.371186696443041 5.395690141341606 5.397278962562062 5.378874750030201 5.338541215729306 5.2776078392741255 3.958316599478222 4.1147285045118975 4.256110306085341 4.392032158780766 4.503335280360293 4.600916560411626 4.678665185775957 4.738749410315067 4.781739098895563 4.804814538808739 4.808818118725989 4.792193230193607 4.755719847609082 4.6998134550081945 3.4656886628497032 3.605557501312337 3.7368280799955347 3.8437744463176458 3.946346653259088 4.032382937637832 4.1046801941959945 4.160837593977554 4.197447858609049 4.2183656613793 4.2197455027873225 4.205760871141883 4.172337457809052 4.123007061356141 2.973065044414974 3.0953272314277 3.2006387563002034 3.3115080136751245 3.398394134954787 3.4767244183501833 3.536576906054424 3.5857755616537133 3.6197058285692316 3.6402144408378265 3.6437945671109158 3.632005822650733 3.603097531010524 3.5591115547273904 2.511099632907818 2.616128717574027 2.716151514959814 2.7932953000626544 2.8688628079174436 2.9337179272650036 2.9893905431591854 3.0326800095999547 3.0608079006412328 3.0777982080228856 3.079165706498517 3.070389156043615 3.0447717702716695 3.008594252358721 2.062291120311726 2.145338986418988 2.217212207267286 2.298686892527921 2.3606367613160355 2.4177353673825817 2.4587249730997707 2.495698037673061 2.5202259496537684 2.537787030641608 2.5410840436349313 2.5346029795117535 2.5137985175011925 2.482711605981902 1.6447219185915938 1.7197512684096552 1.7852375164159806 1.8338146765632912 1.8816557323104282 1.925876142344255 1.963769045261479 1.9942282669560496 2.0128976990091934 2.026061125140569 2.027480773498246 2.024062840943266 2.006518644451952 1.9836296394092887 1.2624862359262892 1.3075896362133212 1.347779285146892 1.4008959361101687 1.4388780896334867 1.4752426802088185 1.498226210215883 1.5225679573288742 1.5378729612168165 1.5520859865840186 1.5553709132309073 1.5537419383417845 1.5411236767146772 1.521612476196975 0.9107183544676412 0.958085733785191 0.9904870350746805 1.0135261027506393 1.0362740957796004 1.06328361304352 1.0844475957908428 1.1024085486233652 1.1114148268047448 1.1201642241684702 1.1217918338048218 1.1226758210915495 1.1129439851928289 1.1011638940632518 0.6114539430297182 0.627183915180025 0.6391584870756885 0.6659352607497095 0.6868180340162175 0.706602164532497 0.7144093321193264 0.7265792364122401 0.7332386385647589 0.7432046131319339 0.7459404443872255 0.747620705486233 0.7422352647285287 0.7313113246127342 0.3563877858464412 0.37635794696447544 0.37449485416904515 0.385877848073212 0.39042829294861237 0.4075103516106944 0.4142804760732245 0.4218090943332305 0.42166292632588437 0.42304269752707996 0.42268077404112214 0.4240770397053804 0.4211630887732122 0.41950975554052555 0.1453355594676567 0.17427331668877633 0.17521086679324202 0.17189944315817526 0.17567274726049062 0.1830905260560275 0.18122306253881082 0.17902623673431833 0.1771559179777805 0.17603533342414263 0.17431815215058727 0.17532723169081094 0.17085491879717518 0.17599629317750948
</DataArray>
        <DataArray type="Float64" Name="φ₁" NumberOfComponents="1" format="ascii">