<?xml version="1.0" encoding="utf-8"?>
<VTKFile type="UnstructuredGrid" version="1.0" byte_order="LittleEndian" header_type="UInt64">
  <UnstructuredGrid>
    <Piece NumberOfPoints="631" NumberOfCells="1176">
      <Points>
        <DataArray type="Float64" Name="Points" NumberOfComponents="3" format="ascii">
 0.0 0.0 0.641113316814176 2.5 0.0 0.3795013753238307 5.0 0.0 3.792267503467511e-5 3.535533905932737 3.535533905932737 3.792264903997924e-5 0.0 5.0 3.7922674780884584e-5 0.0 2.5 0.37950137532444445 2.0 2.0 0.31838396340049707 0.1785714285712757 0.0 0.6403622225257121 0.3571428571424804 0.0 0.6352041642665823 0.5357142857133874 0.0 0.6282528132917731 0.7142857142842944 0.0 0.6173724029408669 0.8928571428552013 0.0 0.6045084923160631 1.0714285714264 0.0 0.5881314871296642 1.2499999999981 0.0 0.5697837737433303 1.4285714285698 0.0 0.5483487641887557 1.6071428571415 0.0 0.5250837066798428 1.7857142857132 0.0 0.49921710409812964 1.9642857142849 0.0 0.4717449734147563 2.1428571428566 0.0 0.4422842487041188 2.3214285714283 0.0 0.411396960308465 2.678571428571429 0.0 0.3460670226317403 2.857142857142858 0.0 0.3127770307617723 3.035714285714286 0.0 0.2783583039960005 3.214285714285715 0.0 0.24489610131931164 3.392857142857144 0.0 0.21080741131449432 3.571428571428572 0.0 0.1787128683564369 3.750000000000001 0.0 0.14648664609718062 3.928571428571429 0.0 0.11742271882731531 4.107142857142858 0.0 0.08879297313267694 4.285714285714286 0.0 0.06461034636367577 4.464285714285715 0.0 0.041402136312352546 4.642857142857143 0.0 0.02419962416768069 4.821428571428571 0.0 0.008529957042002455 4.992134075053608 0.2803522368176583 0.00011881888234382608 4.968561049294108 0.5598223820440165 3.792266948034583e-5 4.929355092188564 0.8375311188933128 0.00011881889021132192 4.874639560198691 1.112604672894154 3.792266366115028e-5 4.804586608558072 1.38417756117647 0.00011881889513599801 4.719416649831025 1.651395314665057 3.792265978402988e-5 4.619397660328271 1.91341716720471 0.00011881889791954255 4.504844337373308 2.169418700029028 3.792265557448176e-5 4.376117107584961 2.418594439070394 0.000118818900053509 4.233620994344893 2.660160385435841 3.7922653762314027e-5 4.077804343103194 2.893356483285238 0.00011881890266874371 3.909157411221246 3.117449010696728 3.792265031279902e-5 3.728210824110724 3.331732890101431 0.00011881890595086866 3.331732889454751 3.728210824688631 0.00011881890692409474 3.117449007990614 3.909157413379299 3.7922652250254086e-5 2.893356479086549 4.077804346082321 0.00011881890262430746 2.660160380075487 4.233620997713025 3.792265513372798e-5 2.418594432668118 4.376117111123373 0.00011881889978658365 2.169418691364848 4.504844341545757 3.792265842399862e-5 1.913417156759158 4.619397664654959 0.00011881889696602177 1.651395305759084 4.719416652947358 3.7922658638617726e-5 1.384177553784759 4.804586610687586 0.00011881889432560356 1.112604666740323 4.874639561603262 3.7922662922878796e-5 0.8375311141520867 4.929355092994129 0.00011881888926326581 0.5598223785324881 4.968561049689761 3.792266899735676e-5 0.2803522351555845 4.992134075146947 0.00011881888072970364 0.0 4.821428571428571 0.008529957042756485 0.0 4.642857142857142 0.024199624165527983 0.0 4.464285714285714 0.041402136313940824 0.0 4.285714285714285 0.06461034636208048 0.0 4.107142857142856 0.08879297313372193 0.0 3.928571428571428 0.11742271882615289 0.0 3.749999999999999 0.14648664609805606 0.0 3.571428571428571 0.17871286835573774 0.0 3.392857142857142 0.21080741131490113 0.0 3.214285714285714 0.24489610131927866 0.0 3.035714285714285 0.2783583039959129 0.0 2.857142857142857 0.31277703076218066 0.0 2.678571428571428 0.34606702263130956 0.0 2.321428571428571 0.4113969603080019 0.0 2.142857142857142 0.44228424870434835 0.0 1.964285714285713 0.47174497341429233 0.0 1.785714285714284 0.4992171040982114 0.0 1.607142857142856 0.5250837066793612 0.0 1.428571428571428 0.5483487641887588 0.0 1.249999999999999 0.569783773742865 0.0 1.071428571428571 0.5881314871296431 0.0 0.8928571428571421 0.6045084923156908 0.0 0.7142857142857137 0.6173724029409404 0.0 0.5357142857142851 0.6282528132915729 0.0 0.3571428571428568 0.6352041642666892 0.0 0.1785714285714284 0.6403622225256315 2.035714285714425 1.857142857142298 0.33200213931294653 2.071428571428758 1.714285714284968 0.34462411919413516 2.10714285714281 1.571428571428759 0.3557511858505884 2.142857142856863 1.428571428572549 0.3657425794914885 2.178571428570915 1.285714285716339 0.37402253385958056 2.214285714284967 1.14285714286013 0.38108293858491327 2.24999999999903 1.000000000003879 0.38635815995624084 2.285714285713446 0.8571428571462172 0.3902927020576533 2.321428571427871 0.7142857142885142 0.39245284072196307 2.357142857142297 0.5714285714308114 0.39315003742253257 2.392857142856723 0.4285714285731084 0.3920888380169507 2.428571428571149 0.2857142857154058 0.3895838047159718 2.464285714285574 0.1428571428577028 0.3853487380591049 1.857142857142298 2.035714285714425 0.3320021393131723 1.714285714284968 2.071428571428758 0.34462411919374936 1.571428571428759 2.10714285714281 0.35575118585043874 1.428571428572549 2.142857142856863 0.36574257949148803 1.285714285716339 2.178571428570915 0.37402253385890155 1.14285714286013 2.214285714284967 0.3810829385850117 1.000000000003879 2.24999999999903 0.38635815995549416 0.8571428571462172 2.285714285713446 0.39029270205800437 0.7142857142885142 2.321428571427871 0.3924528407219061 0.5714285714308114 2.357142857142297 0.39315003742325716 0.4285714285731084 2.392857142856723 0.3920888380170099 0.2857142857154058 2.428571428571149 0.38958380471664283 0.1428571428577028 2.464285714285574 0.38534873805936737 2.109680993281096 2.109680993281096 0.2883912161608111 2.219361986561994 2.219361986561994 0.25952331239099263 2.329042979842296 2.329042979842296 0.229609652752436 2.438723973122599 2.438723973122599 0.20120009415523302 2.548404966403075 2.548404966403075 0.17264582473691242 2.658085959683725 2.658085959683725 0.14571149673038145 2.767766952964375 2.767766952964375 0.1194928405138811 2.877447946245383 2.877447946245383 0.09537494641569945 2.98712893952685 2.98712893952685 0.07250514282810241 3.096809932808008 3.096809932808008 0.05247126942936968 3.206490926089054 3.206490926089054 0.03444966434241186 3.316171919370112 3.316171919370112 0.019562399978026127 3.425852912651282 3.425852912651282 0.007756869597873415 0.1760204081631533 0.1760204081632951 0.639143458432724 0.173469387755031 0.3520408163265903 0.634631123800917 0.1709183673469086 0.5280612244898852 0.627535554870907 0.1683673469387862 0.7040816326531807 0.6173172509341945 0.1658163265306639 0.8801020408164759 0.6045909623280987 0.1632653061225416 1.056122448979771 0.5889277298956136 0.1607142857144199 1.232142857143063 0.5709256929245954 0.1581632653063236 1.408163265306254 0.5502621478444492 0.1556122448982279 1.584183673469443 0.5274950108797505 0.1530612244901322 1.760204081632632 0.5024465061986938 0.1505102040820365 1.936224489795821 0.4755547355171667 0.1479591836739408 2.112244897959009 0.4469336415540213 0.1454081632658251 2.288265306122278 0.41666191868302455 0.3520408163262407 0.1734693877551619 0.6346311238008994 0.3469387755100011 0.3469387755103238 0.6299225550464104 0.3418367346937617 0.5204081632654857 0.6236004459329367 0.3367346938775219 0.6938775510206477 0.6134615158637213 0.3316326530612823 0.8673469387758096 0.6015674725623313 0.3265306122450428 1.040816326530972 0.5862520310970426 0.3214285714288045 1.214285714286127 0.5691389337585504 0.3163265306126167 1.387755102041082 0.5490417033446966 0.3112244897964305 1.561224489796031 0.5271940236795847 0.3061224489802442 1.734693877550979 0.5028958420635649 0.301020408164058 1.908163265305928 0.4769166728385842 0.2959183673478717 2.081632653060877 0.4491760566546152 0.2908163265316453 2.255102040815987 0.4198691163436817 0.5280612244890517 0.1709183673470286 0.6275355548709527 0.5204081632647161 0.3418367346940573 0.6236004459330428 0.5127551020403806 0.5127551020410859 0.6173421475718965 0.5051020408160449 0.6836734693881146 0.6080763851147464 0.4974489795917091 0.8545918367351434 0.5964986140512981 0.4897959183673736 1.025510204082172 0.5821046786695682 0.4821428571430402 1.196428571429192 0.565527847403945 0.4744897959187822 1.36734693877591 0.5464102440809366 0.4668367346945266 1.538265306122618 0.525251567639902 0.4591836734702708 1.709183673469327 0.5019792794152745 0.4515306122460153 1.880102040816036 0.47678562432268173 0.4438775510217596 2.051020408162745 0.4500343556025083 0.4362244897974439 2.221938775509694 0.42149915467282834 0.7040816326518629 0.1683673469388954 0.6173172509342684 0.6938775510194312 0.3367346938777908 0.6134615158637462 0.6836734693869996 0.5051020408166862 0.6080763851147064 0.6734693877545679 0.6734693877555816 0.599109088490859 0.6632653061221361 0.8418367346944772 0.5885308662623139 0.6530612244897046 1.010204081633373 0.5747048604276919 0.6428571428572758 1.178571428572256 0.5591785359503999 0.6326530612249479 1.346938775510737 0.5408764566069191 0.6224489795926229 1.515306122449205 0.520798391221775 0.6122448979602979 1.683673469387674 0.4985249758109589 0.6020408163279729 1.852040816326144 0.47445874314290404 0.591836734695648 2.020408163264612 0.448838630196208 0.5816326530632431 2.188775510203402 0.42151335596440237 0.8801020408146735 0.1658163265307621 0.6045909623282475 0.867346938774146 0.3316326530615243 0.6015674725626032 0.8545918367336184 0.4974489795922861 0.5964986140514202 0.8418367346930907 0.6632653061230486 0.5885308662624538 0.8290816326525628 0.8290816326538107 0.5784430565673373 0.8163265306120355 0.9948979591845732 0.5657239053700593 0.8035714285715114 1.160714285715321 0.5508915332703945 0.7908163265311134 1.326530612245564 0.5337484539048363 0.7780612244907191 1.492346938775792 0.5145524895730668 0.7653061224503246 1.658163265306022 0.49344166613047924 0.7525510204099302 1.823979591836251 0.4703832686343687 0.7397959183695362 1.98979591836648 0.4458607821074613 0.72704081632904
[...]
      <PointData>
        <DataArray type="Float64" Name="w" NumberOfComponents="1" format="ascii">
 11.54003970265517 6.8310247558289525 0.000682608150624152 0.0006826076827196263 0.0006826081460559225 6.83102475584 5.730911341208947 11.526520005462817 11.433674956798482 11.308550639251916 11.112703252935605 10.881152861689136 10.586366768333956 10.256107927379945 9.870277755397602 9.451506720237171 8.985907873766333 8.491409521465613 7.961116476674139 7.40514528555237 6.229206407371325 5.629986553711902 5.010449471928009 4.408129823747609 3.794533403660898 3.2168316304158644 2.636759629749251 2.1136089388916757 1.598273516388185 1.162986234546164 0.7452384536223459 0.4355932350182525 0.1535392267560442 0.0021387398821888694 0.000682608050646225 0.0021387400238037945 0.000682607945900705 0.0021387401124479642 0.0006826078761125379 0.002138740162551766 0.0006826078003406717 0.002138740200963162 0.0006826077677216525 0.0021387402480373867 0.0006826077056303824 0.002138740307115636 0.0021387403246337054 0.0006826077405045736 0.0021387402472375344 0.0006826077924071037 0.0021387401961585058 0.0006826078516319751 0.002138740145388392 0.0006826078554951191 0.002138740097860864 0.0006826079326118183 0.0021387400067387845 0.0006826080419524217 0.0021387398531346655 0.15353922676961673 0.4355932349795037 0.7452384536509349 1.1629862345174486 1.5982735164069948 2.113608938870752 2.636759629765009 3.2168316304032794 3.7945334036682206 4.408129823747016 5.010449471926432 5.629986553719252 6.229206407363572 7.405145285544034 7.961116476678271 8.491409521457262 8.985907873767806 9.451506720228501 9.870277755397659 10.25610792737157 10.586366768333576 10.881152861682434 11.112703252936928 11.308550639248311 11.433674956800406 11.526520005461366 5.976038507633038 6.203234145494433 6.403521345310591 6.583366430846793 6.73240560947245 6.859492894528439 6.954446879212335 7.02526863703776 7.0641511329953355 7.076700673605586 7.057599084305113 7.012508484887492 6.9362772850638885 5.976038507637101 6.203234145487489 6.403521345307897 6.583366430846785 6.732405609460228 6.85949289453021 6.954446879198895 7.0252686370440784 7.06415113299431 7.076700673618629 7.057599084306178 7.012508484899571 6.936277285068613 5.191041890894599 4.671419623037868 4.132973749543848 3.6216016947941942 3.1076248452644237 2.622806941146866 2.1508711292498597 1.71674903548259 1.3050925709058434 0.9444828497286543 0.6200939581634135 0.35212319960447025 0.13962365276172148 11.504582251789033 11.423360228416506 11.295639987676324 11.111710516815501 10.882637321905777 10.600699138121044 10.276662472642718 9.904718661200084 9.494910195835509 9.044037111576488 8.559985239309 8.044805547972384 7.499914536294442 11.423360228416188 11.338605990835386 11.22480802679286 11.042307285546984 10.828214506121965 10.552536559746766 10.244500807653907 9.88275066020454 9.489492426232525 9.052125157144168 8.584500111094515 8.085169019783073 7.55764409418627 11.295639987677148 11.22480802679477 11.112158656294138 10.945374932065434 10.736975052923366 10.477884216052226 10.17950125327101 9.83538439345686 9.454528217518236 9.035627029474941 8.58214123780827 8.10061840084515 7.58698478411091 11.11171051681683 11.042307285547432 10.945374932064714 10.783963592835462 10.59355559272165 10.344687487698453 10.065213647107198 9.735776218924544 9.37437104199195 8.97344956459726 8.540257376572272 8.079095343531744 7.587240407359243 10.882637321908454 10.828214506126859 10.736975052925564 10.593555592724169 10.411975018212072 10.183030296661068 9.916047598867102 9.607472170287053 9.261944812315202 8.881949990348627 8.466898835418636 8.025494077934303 7.553703439236769 10.600699138124746 10.552536559747674 10.477884216053756 10.344687487700174 10.183030296658261 9.968176472249167 9.722987157924791 9.4324348977561 9.10959984714919 8.751079110197283 8.359640074010187 7.9417036369699 7.492481836599622 10.276662472646597 10.244500807661321 10.179501253273012 10.065213647112794 9.916047598869529 9.722987157928332 9.493315945502795 9.226225941587414 8.922210813550228 8.58711285466102 8.21749022887915 7.8229498004981535 7.398979631356474 9.904718661203441 9.882750660204815 9.83538439345906 9.735776218923574 9.607472170284545 9.432434897756753 9.226225941582038 8.980091848211067 8.701288482053963 8.390134352755469 8.04598265270728 7.676667374114995 7.277459901250963 9.494910195839495 9.48949242624025 9.454528217520622 9.374371042000773 9.26194481231639 9.109599847154358 8.922210813553331 8.70128848205469 8.443960081160897 8.159014022193826 7.840152893210436 7.496885341945474 7.125546463410992 9.044037111578858 9.052125157143145 9.03562702947473 8.97344956459378 8.88194999034822 8.751079110193091 8.587112854658885 8.390134352755645 8.159014022196311 7.899134412230676 7.607647343576877 7.291485786829316 6.947052253450021 8.55998523931239 8.584500111103145 8.58214123781252 8.54025737658012 8.466898835420748 8.35964007401644 8.2174902288808 8.045982652702882 7.840152893213426 7.607647343564929 7.3434942384565565 7.055444975900988 6.7401846766824685 8.044805547972231 8.085169019777485 8.100618400843222 8.079095343525795 8.025494077933846 7.941703636961362 7.82294980050527 7.676667374111218 7.496885341954647 7.2914857868329275 7.055444975906225 6.796069757852849 6.509566782516113 7.499914536298383 7.557644094195176 7.58698478411553 7.5872404073640265 7.55370343924256 7.49248183659908 7.39897963135529 7.277459901244471 7.125546463407151 6.947052253441243 6.740184676685511 6.509566782510089 6.253313186674008 6.333855978542461 6.401240919766528 6.4490995540048734 6.464384352428041 6.455756251740584 6.41583647248825 6.352439231943832 6.25829339585592 6.141128916954921 5.996047186603616 5.828647751268939 5.637334160652642 5.426172010825104 5.725367956824202 5.791638204638384 5.834613463317434 5.851037663567974 5.839379043392413 5.805465250092727 5.741173158968401 5.656705400916169 5.543325243659996 5.411638104882392 5.252830911364479 5.079127007867604 4.878169064298331 5.103609637846762 5.158033276451063 5.203798618445824 5.212535291860579 5.209244938422155 5.17200327354821 5.119500506579497 5.037113456544542 4.938312384872504 4.812444833740125 4.671828266812209 4.506524534113587 4.332015203101679 4.487569987204467 4.543201151584986 4.579239911335442 4.5929065640103275 4.584088818880057 4.554942469309832 4.501686322851407 4.431343438403748 4.336097849938075 4.227944143386018 4.095581635159798 3.955239047480094 3.789791304165205 3.8727953512718796 3.9126398043485344 3.9527868114601836 3.956417195157488 3.9570497643452316 3.9238054382406955 3.8855188817839674 3.8165604096953514 3.741309656814787 3.6392645222248206 3.5307252106720677 3.3980522501690245 3.2619341871823453 3.277076578743469 3.320071148417054 3.3474421864249297 3.358445240873386 3.3513582718280954 3.329816552319372 3.288737627569666 3.2351451800122395 3.1624560668457478 3.0797643566882513 2.9787974949634464 2.8728893443456602 2.750363575881589 2.69768094873464 2.7223085738805137 2.7554138945125883 2.7538248948993416 2.758408065586025 2.7305183670789317 2.706097152041673 2.6537609665743305 2.602288790373218 2.527215554350374 2.452512366305186 2.357450359174163 2.260175832340632 2.1534978014723216 2.1837836591220707 2.200792741125488 2.210003987632864 2.2040662018457375 2.190113691690514 2.1627661543473384 2.1261749104707808 2.077869287588164 2.0214525112354416 1.954285976746181 1.8804380336402424 1.8011011340517658 1.6416447897678765 1.6508450497926201 1.6770829315634965 1.6711501782850944 1.6776250534381663 1.65785466391205 1.6447652448524988 1.610638583758754 1.580835037332503 1.533474427223823 1.489044512656599 1.4319786629873315 1.3751927220552245 1.1822519533383418 1.2021358164952347 1.20924109688999 1.2152509852356401 1.2123942115207889 1.2038473028678067 1.1898916432809774 1.1689907779901763 1.1438194634884165 1.1113972408197144 1.076565497494935 1.0340859622320566 0.9890448624578237 0.7739622122232032 0.7708969270126317 0.7879248651884978 0.7821690196594987 0.78703497248447 0.7764187696925512 0.7719212740381167 0.7551307045045313 0.7423885707391752 0.7200691377314701 0.7011182633826782 0.6732160298360561 0.6529902999684294 0.4376677381054229 0.4470811709973874 0.4498323016146862 0.450477878975571 0.4511986659268054 0.4466753995882172 0.44331929753762717 0.43453905031130224 0.4271920335184329 0.41503249457019703 0.40316847565599845 0.3888117548709094 0.3721083364467169 0.16668032452640602 0.16253085752996443 0.16711141011398198 0.16486389463477033 0.1669372361486089 0.16380460861176419 0.16419472085863338 0.160050416087502 0.15911104003855964 0.15364736022175396 0.1518966806426987 0.14540840301995517 0.1431104597872362 5.426172010827261 5.637334160672874 5.828647751282401 5.996047186640492 6.141128916990103 6.258293395908798 6.352439231984529 6.415836472508336 6.455756251745015 6.464384352423212 6.449099553995756 6.401240919750913 6.333855978527956 4.878169064310242 5.079127007893491 5.252830911411229 5.411638104941282 5.543325243733534 5.656705401030434 5.741173159054109 5.805465250175686 5.8393790434431185 5.851037663603325 5.834613463335055 5.791638204650372 5.725367956818989 4.332015203114677 4.5065245341626845 4.671828266860575 4.8124448338367305 4.938312384952865 5.037113456700644 5.119500506681352 5.1720032736009705 5.209244938457897 5.212535291867769 5.2037986184377 5.15803327643494 5.103609637819607 3.7897913041876152 3.955239047527532 4.095581635224967 4.227944143480606 4.336097850051519 4.43134343857283 4.5016863229971165 4.554942469421024 4.584088818951772 4.592906564052935 4.579239911359889 4.543201151590277 4.487569987184933 3.2619341872016294 3.3980522502402746 3.530725210733694 3.639264522344931 3.74130965690997 3.8165604098981603 3.885518881889433 3.923805438298174 3.9570497643877496 3.9564171951577385 3.9527868114453617 3.9126398043368025 3.872795351230038 2.750363575911151 2.8728893444001438 2.9787974950301854 3.0797643567929858 3.162456066964538 3.2351451802010924 3.2887376277294877 3.329816552414107 3.3513582719061925 3.358445240914029 3.3474421864396504 3.3200711484097747 3.2770765787097447 2.2601758323669867 2.3574503592592326 2.4525123663600827 2.5272155544691444 2.602288790451734 2.653760966773507 2.706097152129104 2.7305183671198305 2.7584080656018553 2.753824894891635 2.755413894493978 2.722308573870879 2.6976809486819273 1.8011011340794785 1.8804380336944817 1.9542859768040928 2.021452511331118 2.077869287699746 2.1261749106398335 2.162766154467873 2.190113691762254 2.204066201921618 2.2100039876449933 2.2007927411257264 2.1837836591008553 2.1534978014255746 1.3751927220915239 1.4319786630699074 1.489044512694358 1.5334744273165166 1.580835037370259 1.6106385839441317 1.6447652449074002 1.6578546638960774 1.6776250534324202 1.6711501782801375 1.677082931532957 1.6508450497891687 1.6416447897060142 0.9890448624755035 1.034085962287726 1.076565497535365 1.1113972409067883 1.1438194635705219 1.1689907780901434 1.1898916433663795 1.2038473029226593 1.2123942115523207 1.215250985220945 1.209241096878851 1.2021358164577065 1.182251953293604 0.6529903000119036 0.6732160298993516 0.7011182633999438 0.7200691377781617 0.7423885707629645 0.7551307046581575 0.7719212740200745 0.7764187696393435 0.7870349724852865 0.7821690196403114 0.7879248651572605 0.7708969270113141 0.7739622121520884 0.37210833645464364 0.3888117549267884 0.4031684756797692 0.41503249463623343 0.4271920335364006 0.43453905036932644 0.44331929760223737 0.44667539958725117 0.45119866591372687 0.45047787896057073 0.44983230158337656 0.4470811709700289 0.43766773806696985 0.14311045982269896 0.1454084030555663 0.15189668064697656 0.15364736024276077 0.15911104006140536 0.160050416153081 0.16419472081762926 0.1638046085768458 0.16693723613524264 0.16486389461364517 0.1671114100932685 0.16253085751481194 0.1666803244802979
</DataArray>
        <DataArray type="Float64" Name="phi_1" NumberOfComponents="1" format="ascii">