<?xml version="1.0" encoding="utf-8"?>
<VTKFile type="UnstructuredGrid" version="1.0" byte_order="LittleEndian" header_type="UInt64">
  <UnstructuredGrid>
    <Piece NumberOfPoints="631" NumberOfCells="1176">
      <Points>
        <DataArray type="Float64" Name="Points" NumberOfComponents="3" format="ascii">
 0.0 0.0 2.7643912021663213 2.5 0.0 1.9603729116485487 5.0 0.0 0.0016689705622140772 3.535533905932737 3.535533905932737 0.0016689709291781549 0.0 5.0 0.0016689705568283663 0.0 2.5 1.960372911608686 2.0 2.0 1.7374263266176901 0.1785714285712757 0.0 2.761514503935841 0.3571428571424804 0.0 2.7492234498808803 0.5357142857133874 0.0 2.7280490615857755 0.7142857142842944 0.0 2.6981939734899854 0.8928571428552013 0.0 2.6597976802560885 1.0714285714264 0.0 2.612997528380888 1.2499999999981 0.0 2.557948923346888 1.4285714285698 0.0 2.494827748708711 1.6071428571415 0.0 2.423835174162439 1.7857142857132 0.0 2.3451964659280873 1.9642857142849 0.0 2.2591678711738425 2.1428571428566 0.0 2.1660473423043682 2.3214285714283 0.0 2.066226013977626 2.678571428571429 0.0 1.8457194818209366 2.857142857142858 0.0 1.7258590662382796 3.035714285714286 0.0 1.6006858599650349 3.214285714285715 0.0 1.4705140799381395 3.392857142857144 0.0 1.335756454160443 3.571428571428572 0.0 1.1968684416056696 3.750000000000001 0.0 1.0543392780278273 3.928571428571429 0.0 0.9086856240022078 4.107142857142858 0.0 0.7604532242055002 4.285714285714286 0.0 0.6102139913061383 4.464285714285715 0.0 0.45856905568658435 4.642857142857143 0.0 0.30614763202572515 4.821428571428571 0.0 0.1536130351190465 4.992134075053608 0.2803522368176583 0.0016705315147462992 4.968561049294108 0.5598223820440165 0.0016689706265104055 4.929355092188564 0.8375311188933128 0.00167053145748819 4.874639560198691 1.112604672894154 0.0016689706809815085 4.804586608558072 1.38417756117647 0.0016705314066773026 4.719416649831025 1.651395314665057 0.0016689707351638032 4.619397660328271 1.91341716720471 0.0016705313429169386 4.504844337373308 2.169418700029028 0.0016689707537755074 4.376117107584961 2.418594439070394 0.0016705312875393678 4.233620994344893 2.660160385435841 0.0016689708135773007 4.077804343103194 2.893356483285238 0.0016705312377885582 3.909157411221246 3.117449010696728 0.0016689708522473494 3.728210824110724 3.331732890101431 0.0016705311790427939 3.331732889454751 3.728210824688631 0.001670531199694734 3.117449007990614 3.909157413379299 0.0016689708933602416 2.893356479086549 4.077804346082321 0.0016705312368456772 2.660160380075487 4.233620997713025 0.0016689708426787149 2.418594432668118 4.376117111123373 0.0016705312818752983 2.169418691364848 4.504844341545757 0.0016689708142423325 1.913417156759158 4.619397664654959 0.0016705313226832983 1.651395305759084 4.719416652947358 0.0016689707108579256 1.384177553784759 4.804586610687586 0.0016705313894808467 1.112604666740323 4.874639561603262 0.0016689706653151449 0.8375311141520867 4.929355092994129 0.0016705314373705988 0.5598223785324881 4.968561049689761 0.0016689706162611021 0.2803522351555845 4.992134075146947 0.0016705314804947625 0.0 4.821428571428571 0.1536130351787711 0.0 4.642857142857142 0.3061476320303313 0.0 4.464285714285714 0.4585690557122778 0.0 4.285714285714285 0.610213991287058 0.0 4.107142857142856 0.760453224220085 0.0 3.928571428571428 0.9086856239755837 0.0 3.749999999999999 1.0543392780402343 0.0 3.571428571428571 1.1968684415757531 0.0 3.392857142857142 1.335756454172697 0.0 3.214285714285714 1.470514079905331 0.0 3.035714285714285 1.6006858599768525 0.0 2.857142857142857 1.725859066201312 0.0 2.678571428571428 1.8457194818306424 0.0 2.321428571428571 2.0662260139842368 0.0 2.142857142857142 2.166047342274022 0.0 1.964285714285713 2.2591678711872807 0.0 1.785714285714284 2.345196465901637 0.0 1.607142857142856 2.423835174179032 0.0 1.428571428571428 2.4948277486841532 0.0 1.249999999999999 2.5579489233654296 0.0 1.071428571428571 2.6129975283576203 0.0 0.8928571428571421 2.6597976802762147 0.0 0.7142857142857137 2.6981939734679288 0.0 0.5357142857142851 2.7280490616070607 0.0 0.3571428571428568 2.7492234498598926 0.0 0.1785714285714284 2.7615145039644493 2.035714285714425 1.857142857142298 1.7879439527075587 2.071428571428758 1.714285714284968 1.8329884951428428 2.10714285714281 1.571428571428759 1.8727564947531097 2.142857142856863 1.428571428572549 1.9072922573067685 2.178571428570915 1.285714285716339 1.9365789344061368 2.214285714284967 1.14285714286013 1.9605796979897865 2.24999999999903 1.000000000003879 1.9792557077774335 2.285714285713446 0.8571428571462172 1.9925741182545447 2.321428571427871 0.7142857142885142 2.000512216888 2.357142857142297 0.5714285714308114 2.0030607837055885 2.392857142856723 0.4285714285731084 2.0002294532751383 2.428571428571149 0.2857142857154058 1.9920599957178338 2.464285714285574 0.1428571428577028 1.9786664908200868 1.857142857142298 2.035714285714425 1.7879439527088636 1.714285714284968 2.071428571428758 1.832988495145828 1.571428571428759 2.10714285714281 1.8727564947563764 1.428571428572549 2.142857142856863 1.9072922573097073 1.285714285716339 2.178571428570915 1.9365789344085784 1.14285714286013 2.214285714284967 1.9605796979918497 1.000000000003879 2.24999999999903 1.9792557077779636 0.8571428571462172 2.285714285713446 1.99257411825224 0.7142857142885142 2.321428571427871 2.0005122168838607 0.5714285714308114 2.357142857142297 2.0030607837005783 0.4285714285731084 2.392857142856723 2.0002294532702476 0.2857142857154058 2.428571428571149 1.9920599957139946 0.1428571428577028 2.464285714285574 1.9786664908139024 2.109680993281096 2.109680993281096 1.6316794804975532 2.219361986561994 2.219361986561994 1.5213625904687642 2.329042979842296 2.329042979842296 1.4071050579619007 2.438723973122599 2.438723973122599 1.2893612319358048 2.548404966403075 2.548404966403075 1.1685124554720072 2.658085959683725 2.658085959683725 1.0449161097851547 2.767766952964375 2.767766952964375 0.9189268712054265 2.877447946245383 2.877447946245383 0.7909056433169245 2.98712893952685 2.98712893952685 0.661223334247678 3.096809932808008 3.096809932808008 0.5302624040834015 3.206490926089054 3.206490926089054 0.39841722024772774 3.316171919370112 3.316171919370112 0.2660933299555436 3.425852912651282 3.425852912651282 0.1337049821664295 0.1760204081631533 0.1760204081632951 2.757824707690023 0.173469387755031 0.3520408163265903 2.7457535156364816 0.1709183673469086 0.5280612244898852 2.7252299205960826 0.1683673469387862 0.7040816326531807 2.696317013361391 0.1658163265306639 0.8801020408164759 2.659113983231906 0.1632653061225416 1.056122448979771 2.613742247187621 0.1607142857144199 1.232142857143063 2.560344799086872 0.1581632653063236 1.408163265306254 2.499086979714215 0.1556122448982279 1.584183673469443 2.4301568289282156 0.1530612244901322 1.760204081632632 2.3537654568168813 0.1505102040820365 1.936224489795821 2.2701476836122962 0.1479591836739408 2.112244897959009 2.1795636719029576 0.1454081632658251 2.288265306122278 2.0823005927204923 0.3520408163262407 0.1734693877551619 2.7457535156316935 0.3469387755100011 0.3469387755103238 2.7342208008036932 0.3418367346937617 0.5204081632654857 2.71456308713483 0.3367346938775219 0.6938775510206477 2.686802107236914 0.3316326530612823 0.8673469387758096 2.6510081747973513 0.3265306122450428 1.040816326530972 2.6072842712602746 0.3214285714288045 1.214285714286127 2.555759284151305 0.3163265306126167 1.387755102041082 2.4965858427294383 0.3112244897964305 1.561224489796031 2.4299385623362273 0.3061224489802442 1.734693877550979 2.356013386625537 0.301020408164058 1.908163265305928 2.275025903134343 0.2959183673478717 2.081632653060877 2.187209497233478 0.2908163265316453 2.255102040815987 2.0928088846098936 0.5280612244890517 0.1709183673470286 2.7252299205942605 0.5204081632647161 0.3418367346940573 2.7145630871391244 0.5127551020403806 0.5127551020410859 2.696030895222038 0.5051020408160449 0.6836734693881146 2.6696553570862798 0.4974489795917091 0.8545918367351434 2.635495449252545 0.4897959183673736 1.025510204082172 2.5936412407554257 0.4821428571430402 1.196428571429192 2.5442091849443766 0.4744897959187822 1.36734693877591 2.487339504422509 0.4668367346945266 1.538265306122618 2.423193949862244 0.4591836734702708 1.709183673469327 2.3519542794103114 0.4515306122460153 1.880102040816036 2.2738199591444377 0.4438775510217596 2.051020408162745 2.1890054832985424 0.4362244897974439 2.221938775509694 2.0977347407662053 0.7040816326518629 0.1683673469388954 2.6963170133602614 0.6938775510194312 0.3367346938777908 2.686802107234724 0.6836734693869996 0.5051020408166862 2.66965535708413 0.6734693877545679 0.6734693877555816 2.644905753851865 0.6632653061221361 0.8418367346944772 2.612609073767451 0.6530612244897046 1.010204081633373 2.572847437721493 0.6428571428572758 1.178571428572256 2.5257274135406518 0.6326530612249479 1.346938775510737 2.471378250787869 0.6224489795926229 1.515306122449205 2.409949993336251 0.6122448979602979 1.683673469387674 2.3416117362249267 0.6020408163279729 1.852040816326144 2.2665493022109473 0.591836734695648 2.020408163264612 2.1849625589930777 0.5816326530632431 2.188775510203402 2.097061470926564 0.8801020408146735 0.1658163265307621 2.659113983233054 0.867346938774146 0.3316326530615243 2.6510081748014134 0.8545918367336184 0.4974489795922861 2.6354954492546936 0.8418367346930907 0.6632653061230486 2.6126090737689087 0.8290816326525628 0.8290816326538107 2.582403505430745 0.8163265306120355 0.9948979591845732 2.544955429959727 0.8035714285715114 1.160714285715321 2.5003634743228873 0.7908163265311134 1.326530612245564 2.448747397724993 0.7780612244907191 1.492346938775792 2.390246829931671 0.7653061224503246 1.658163265306022 2.3250197138113937 0.7525510204099302 1.823979591836251 2.253240133630155 0.7397959183695362 1.98979591836648 2.175095695694956 0.7270408163290417 2.155612244897109 2.0907844418749826 1.056122448977755 0.1632653061226289 2.6137422471887697 1.04081632652911
[...]
      <PointData>
        <DataArray type="Float64" Name="w" NumberOfComponents="1" format="ascii">
 41.46586803249482 29.40559367472823 0.02503455843321116 0.025034563937672324 0.025034558352425493 29.40559367413029 26.061394899265352 41.422717559037615 41.238351748213205 40.92073592378663 40.47290960234978 39.896965203841326 39.19496292571332 38.36923385020332 37.42241623063067 36.357527612436584 35.177946988921306 33.88751806760764 32.490710134565525 30.993390209664394 27.68579222731405 25.887885993574194 24.01028789947552 22.05771119907209 20.036346812406645 17.953026624085044 15.815089170417409 13.630284360033116 11.406798363082503 9.153209869592075 6.8785358352987656 4.592214480385877 2.3041955267856977 0.025057972721194487 0.025034559397656083 0.02505797186232285 0.025034560214722626 0.02505797110015954 0.025034561027457047 0.02505797014375408 0.025034561306632612 0.025057969313090518 0.02503456220365951 0.025057968566828372 0.025034562783710242 0.02505796768564191 0.02505796799542101 0.025034563400403623 0.025057968552685158 0.025034562640180724 0.025057969228129476 0.025034562213634988 0.025057969840249474 0.025034560662868882 0.0250579708422127 0.025034559979727172 0.025057971560558983 0.02503455924391653 0.02505797220742144 2.3041955276815664 4.592214480454969 6.878535835684167 9.15320986930587 11.406798363301276 13.630284359633755 15.815089170603516 17.953026623636298 20.036346812590455 22.057711198579963 24.010287899652788 25.88788599301968 27.685792227459636 30.993390209763554 32.49071013411033 33.88751806780921 35.17794698852455 36.35752761268548 37.4224162302623 38.36923385048144 39.19496292536431 39.89696520414322 40.47290960201893 40.92073592410591 41.23835174789839 41.42271755946674 26.81915929061338 27.494827427142642 28.091347421296646 28.60938385960153 29.048684016092054 29.408695469846798 29.688835616661503 29.88861177381817 30.007683253320003 30.045911755583827 30.003441799127078 29.880899935767506 29.679997362301304 26.819159290632953 27.49482742718742 28.091347421345645 28.60938385964561 29.048684016128675 29.408695469877745 29.688835616669454 29.8886117737836 30.00768325325791 30.045911755508676 30.003441799053714 29.88089993570992 29.679997362208535 24.475192207463298 22.820438857031462 21.10657586942851 19.340418479037073 17.527686832080107 15.67374164677732 13.783903068081397 11.863584649753868 9.91835001371517 7.953936061251023 5.976258303715916 3.991399949333154 2.005574732496443 41.367370615350346 41.186302734547226 40.878448808941236 40.444755200420865 39.886709748478594 39.20613370781431 38.40517198630308 37.48630469571322 36.45235243392323 35.30648185225322 34.052215254184446 32.69345507854437 31.234508890807383 41.186302734475404 41.0133120120554 40.718446307022454 40.30203160855371 39.765122621960266 39.10926406890412 38.33638926226957 37.448787640941575 36.44907843504341 35.340200799383055 34.12538854701515 32.808142458502175 31.392133269148406 40.87844880891391 40.718446307086865 40.440463428330574 40.0448303562942 39.532431738788176 38.90461861133139 38.16313777416565 37.31009256633764 36.34790924793366 35.27931419115467 34.10729938716656 32.835082249478134 31.466021111493077 40.44475520040392 40.302031608520856 40.04483035626195 39.673586307777974 39.18913610651177 38.5927115658224 37.88591120310978 37.070673761818036 36.14924990004377 35.1241760433739 33.99823953316421 32.774438384896165 31.455922063898463 39.88670974849581 39.7651226220212 39.53243173882041 39.18913610653363 38.73605258146117 38.1743314493959 37.50545211484331 36.731210965874894 35.85370244897506 34.875295707170906 33.79860200445232 32.62643543542434 31.36176662812474 39.20613370783155 39.10926406888256 38.90461861132214 38.592711565825766 38.17433144939643 37.650556975293 37.0227628333729 36.29261809956673 35.46207684140314 34.53336051903462 33.50892844619785 32.39143683051526 31.183691049120625 38.40517198634613 38.3363892623487 38.16313777422055 37.885911203144566 37.505452114861946 37.022762833382174 36.43911504637439 35.75605588038924 34.97540781583754 34.09925922455051 33.129939617964546 32.069975178066144 30.922026920758064 37.486304695754235 37.44878764093854 37.31009256634583 37.07067376183431 36.73121096588995 36.29261809957725 35.756055880393525 35.122944671402564 34.394974359401175 33.57410657949835 32.66256010574472 31.662766329443855 30.57728469907115 36.45235243399042 36.44907843514508 36.347909248010396 36.14924990009617 35.853702449009084 35.46207684142371 34.975407815848016 34.39497435940506 33.72232026345021 32.959272636759714 32.10794816620553 31.170723944481868 30.150136042018275 35.30648185232258 35.34020079940373 35.2793141911826 35.1241760434062 34.87529570719906 34.53336051905431 34.09925922456119 33.57410657950208 32.95927263675949 32.25641974564739 31.46754351644996 30.59499288296618 29.641398506521067 34.052215254284725 34.12538854714507 34.10729938726812 33.998239533236564 33.798602004500886 33.508928446226705 33.129939617977755 32.66256010574712 32.10794816620195 31.467543516445396 30.743147288582282 29.937035930016417 29.05204403600428 32.69345507865439 32.80814245855137 32.83508224952831 32.77443838494673 32.626435435465716 32.391436830540705 32.06997517807448 31.66276632943958 31.170723944470325 30.59499288295193 29.937035930005504 29.198839813134853 28.38332325113008 31.234508890948305 31.392133269302736 31.466021111619458 31.45592206399379 31.361766628190264 31.18369104915576 30.922026920763702 30.57728469905822 30.150136041996106 29.64139850649331 29.052044035976646 28.383323251111282 27.637337954949245 27.967852930347878 28.168301497469063 28.289489551153082 28.331345890142803 28.29366458806141 28.1764826078836 27.98012194366819 27.705175575099314 27.352484719923076 26.923117276844135 26.418369672522893 25.839887229040233 25.190252243399517 26.162933518173215 26.35967470084325 26.47859682826603 26.51988639901244 26.483624919212286 26.370060259248913 26.179720206668105 25.913451098002863 25.57243344329341 25.15820565392536 24.672735056289934 24.118608842336883 23.49944673828283 24.273796159464883 24.463238155285126 24.578148558759707 24.618423608106077 24.584157597985698 24.475705236623128 24.293747336083364 24.03933215029516 23.71390479545892 23.3193435392923 22.85802372385643 22.3329221712658 21.74771312809703 22.306601749238823 22.486107668800884 22.59537625469851 22.63405709964469 22.602174285250022 22.500110540655154 22.328631257496973 22.0889108187763 21.782556766906417 21.411636006499734 20.978705145394276 20.486828604211084 19.939516221287597 20.267943020352764 20.435357605157787 20.537576735382434 20.57410529159523 20.54489594409789 20.450320414720853 20.291171465303428 20.068674770535598 19.78450177831525 19.440779796915596 19.040092538495124 18.58544980352619 18.0801803693738 18.164933862486585 18.31838915348796 18.4123318877963 18.446200259678875 18.419895974468353 18.333761448302347 18.188573528763698 17.985545345353152 17.726329115386303 17.413013077327957 17.048104183546318 16.63447914269843 16.17528026107282 16.00515849234785 16.143009470274432 16.227598522598633 16.258349985762752 16.235137086107628 16.15826481953078 16.028462003873884 15.84687770427218 15.615077880118998 15.335034617195522 15.009101765857004 14.639963813592459 14.230548645388629 13.796644071743598 13.91745477969474 13.991745673190731 14.018970022191377 13.998992638094775 13.932077579159117 13.818881731738495 13.660449170400712 13.45820595132944 13.213946435143441 12.929809744023519 12.60823431290011 12.251890307621071 11.547847070025428 11.650387149899379 11.71356450324638 11.736895891433615 11.720255834889631 11.663866249431281 11.568294374641317 11.434446958594998 11.263567279343528 11.05722137384804 10.817281130868453 10.545887800012576 10.245406370988341 9.267649553965551 9.350897592491293 9.402272514646127 9.42138783893372 9.408142952071874 9.362716717958941 9.285573857869101 9.177458471610478 9.039397545549667 8.872686751891317 8.678885497162437 8.459789250389262 8.217412658740376 6.965354983953309 7.028496138437984 7.067509645356785 7.0821302211317745 7.072293291920204 7.038132547558728 6.980002109834563 6.898464132350373 6.7943053489054765 6.66851651728756 6.522306767150637 6.357078660174671 6.174453368644278 4.65068541872136 4.693108147910263 4.719335395548673 4.729230309307315 4.722768657987402 4.70003315629242 4.661265674801303 4.606831919982863 4.537266271120371 4.4532268676821145 4.355544833598404 4.245181394988938 4.123315589615875 2.3337630254745894 2.355054774882481 2.36822247675217 2.3732161358866146 2.3700533593357793 2.3587521634372313 2.339453543055179 2.312312683091746 2.277618154702471 2.2356716997034884 2.18691746101002 2.1318212377447274 2.071055207653251 25.190252243412925 25.83988722912754 26.418369672662095 26.923117277014395 27.35248472010968 27.705175575334952 27.980121943919237 28.17648260803914 28.293664588136075 28.331345890157852 28.2894895511149 28.168301497380565 27.96785293020854 23.499446738293813 24.118608842453668 24.672735056496656 25.15820565419473 25.5724334436027 25.91345109840307 26.17972020710845 26.37006025955644 26.483624919404388 26.519886399121578 26.478596828308735 26.35967470083113 26.16293351802777 21.747713128106408 22.332922171400494 22.85802372410858 23.319343539631994 23.713904795857562 24.0393321508148 24.293747336657965 24.475705237032454 24.584157598243397 24.618423608240466 24.578148558773286 24.463238155186815 24.27379615933039 19.939516221295793 20.486828604355527 20.97870514567383 21.411636006884304 21.782556767363214 22.08891081937401 22.328631258158804 22.50011054113096 22.602174285554295 22.634057099814918 22.595376254757042 22.48610766879325 22.30660174911976 18.080180369380894 18.5854498036744 19.040092538787658 19.440779797323835 19.784501778802603 20.068674771173548 20.291171466007597 20.450320415224947 20.544895944412684 20.574105291757167 20.53757673540442 20.435357605067267 20.267943020230703 16.175280261078246 16.634479142846118 17.04810418384038 17.413013077743393 17.7263291158814 17.98554534600022 18.188573529473064 18.33376144880797 18.41989597477921 18.446200259842012 18.41233188783955 18.318389153475554 18.16493386238173 14.230548645390927 14.639963813737399 15.009101766143486 15.335034617606642 15.615077880603165 15.846877704903076 16.028462004554385 16.158264820010555 16.23513708638585 16.258349985891208 16.227598522588 16.143009470171528 16.005158492222723 12.251890307617023 12.60823431304353 12.92980974429511 13.213946435544704 13.458205951787566 13.660449170998254 13.818881732360948 13.932077579594994 13.998992638324633 14.018970022292418 13.991745673168866 13.917454779653779 13.796644071629894 10.245406370971475 10.545887800162854 10.81728113111826 11.057221374241845 11.263567279761304 11.434446959151924 11.568294375176398 11.66386624980862 11.720255835042035 11.736895891484037 11.713564503139665 11.650387149763713 11.547847069863137 8.217412658698784 8.459789250569546 8.678885497379675 8.872686752291719 9.039397545908141 9.177458472136427 9.285573858283577 9.362716718276543 9.40814295212007 9.421387838954988 9.402272514476275 9.350897592417493 9.267649553778737 6.174453368559513 6.357078660437855 6.522306767308989 6.668516517727941 6.794305349168204 6.898464132885784 6.980002110077862 7.0381325478309735 7.072293291813612 7.082130221141485 7.067509645035303 7.028496138307454 6.96535498363212 4.123315589472194 4.245181395436632 4.355544833631672 4.453226868229235 4.537266271209416 4.606831920628845 4.661265674784841 4.700033156562592 4.722768657654718 4.729230309389276 4.71933539505549 4.693108147931877 4.65068541823432 2.071055207504201 2.131821238487342 2.1869174608177975 2.235671700439591 2.2776181544968197 2.312312684026108 2.339453542655826 2.3587521637381403 2.370053358706678 2.3732161361122075 2.368222476004831 2.3550547750043282 2.3337630246601435
</DataArray>
        <DataArray type="Float64" Name="phi_1" NumberOfComponents="1" format="ascii">