<?xml version="1.0" encoding="utf-8"?>
<VTKFile type="UnstructuredGrid" version="1.0" byte_order="LittleEndian" header_type="UInt64">
  <UnstructuredGrid>
    <Piece NumberOfPoints="4225" NumberOfCells="8192">
      <Points>
        <DataArray type="Float64" Name="Points" NumberOfComponents="3" format="ascii">
 0.0 0.0 0.002675960358154982 50.0 0.0 0.0026759614793600414 100.0 0.0 0.0026759667199163437 125.0 43.30127018922193 169.49629509744116 150.0 86.60254037844386 0.0026759564413531807 100.0 86.60254037844386 0.0026759575625589374 50.0 86.60254037844386 0.0026759628031156665 25.0 43.30127018922193 169.4963224151942 75.0 43.30127018922193 188.67501538762454 1.562499999993863 0.0 -0.002675960336972744 3.12499999998727 0.0 0.002675960313693068 4.687499999981847 0.0 -0.0026759602957437015 6.249999999976338 0.0 0.0026759602782823427 7.812499999968399 0.0 -0.0026759602657500737 9.374999999960288 0.0 0.0026759602558187007 10.93749999995218 0.0 -0.002675960250601327 12.49999999994406 0.0 0.0026759602493869232 14.06249999993596 0.0 -0.0026759602521127094 15.62499999992785 0.0 0.0026759602596861153 17.1874999999246 0.0 -0.0026759602704011787 18.74999999992205 0.0 0.0026759602866783354 20.31249999991949 0.0 -0.002675960305477033 21.87499999991693 0.0 0.0026759603304287154 23.43749999991438 0.0 -0.0026759603573908003 24.99999999991182 0.0 0.002675960390958579 26.56249999990927 0.0 -0.002675960426128845 28.12499999990671 0.0 0.0026759604682592294 29.68749999990415 0.0 -0.0026759605116838323 31.2499999999016 0.0 0.0026759605623392245 32.81249999990599 0.0 -0.002675960614057577 34.37499999991453 0.0 0.00267596067320365 35.93749999992308 0.0 -0.0026759607332451844 37.49999999993162 0.0 0.0026759608008533457 39.06249999994017 0.0 -0.002675960869243069 40.62499999994872 0.0 0.0026759609452915905 42.18749999995727 0.0 -0.0026759610220497953 43.74999999996581 0.0 0.002675961106521201 45.31249999997436 0.0 -0.002675961191663062 46.87499999998291 0.0 0.002675961284543493 48.43749999999145 0.0 -0.0026759613780804265 51.56249999998387 0.0 -0.002675961581301031 53.12499999996774 0.0 0.002675961690973366 54.68749999995161 0.0 -0.0026759618013240684 56.24999999993549 0.0 0.0026759619193835464 57.81249999991936 0.0 -0.0026759620381461556 59.37499999990323 0.0 0.0026759621645902486 60.93749999988711 0.0 -0.002675962291768532 62.49999999987098 0.0 0.002675962426599358 64.06249999985485 0.0 -0.002675962562193786 65.62499999983872 0.0 0.002675962705407332 67.18749999982259 0.0 -0.002675962849410103 68.74999999980648 0.0 0.0026759630010064982 70.31249999979035 0.0 -0.0026759631534250773 71.87499999977422 0.0 0.0026759633134220296 73.43749999975809 0.0 -0.0026759634742588296 74.99999999974196 0.0 0.0026759636426400687 76.56249999972582 0.0 -0.0026759638118572064 78.12499999970969 0.0 0.0026759639886082985 79.68749999969354 0.0 -0.0026759641662383736 81.2499999996774 0.0 0.002675964351440711 82.81249999968902 0.0 -0.0026759645375441874 84.37499999971729 0.0 0.00267596473114967 85.93749999974557 0.0 -0.0026759649255516885 87.49999999977383 0.0 0.0026759651273113244 89.0624999998021 0.0 -0.0026759653299794272 90.62499999983038 0.0 0.002675965540253325 92.18749999985863 0.0 -0.002675965752393636 93.74999999988691 0.0 0.002675965972193175 95.31249999991519 0.0 -0.002675966192976067 96.87499999994344 0.0 0.0026759664105258994 98.43749999997172 0.0 -0.0026759666097920178 100.7812499999989 1.353164693411278 2.606481911563681 101.5624999999977 2.706329386822327 7.813968842078739 102.3437499999967 4.059494080233931 14.765673655306378 103.1249999999957 5.412658773645339 22.87108805937328 103.906249999994 6.765823467055575 31.91892109852067 104.6874999999924 8.118988160465939 41.62176418850453 105.4687499999908 9.472152853876437 51.74957540695848 106.2499999999891 10.82531754728667 62.1427523946578 107.0312499999874 12.17848224069691 72.63362241314898 107.8124999999859 13.53164693410741 83.08095231982897 108.5937499999839 14.88481162751712 93.36919769861832 109.3749999999826 16.23797632092813 103.38859164481477 110.1562499999808 17.59114101433811 113.04465471510433 110.9374999999795 18.94430570774913 122.25696424816807 111.7187499999774 20.29747040115858 130.95310864150537 112.4999999999764 21.65063509457012 139.07121974278178 113.2812499999776 23.0037997879853 146.55922348111733 114.062499999979 24.35696448140101 153.3726581388227 114.8437499999805 25.71012917481671 159.47520325610193 115.6249999999825 27.06329386823346 164.83821590785183 116.406249999984 28.41645856164916 169.43976465962572 117.1874999999854 29.76962325506487 173.26458686661593 117.9687499999869 31.12278794848058 176.30375363251224 118.7499999999884 32.47595264189628 178.55413300623425 119.5312499999898 33.82911733531199 180.01819232670442 120.3124999999913 35.1822820287277 180.7037186871356 121.0937499999927 36.5354467221434 180.62345073989283 121.8749999999942 37.88861141555911 179.79484361178174 122.6562499999956 39.24177610897482 178.23981274140436 123.4374999999971 40.59494080239052 175.9844358197682 124.2187499999986 41.94810549580623 173.0587085815874 125.781249999999 44.65443488263336 165.3342557085768 126.5624999999974 46.00759957604375 160.6127946027204 127.3437499999964 47.36076426945517 155.37500381057615 128.1249999999965 48.71392896286869 149.66659224981424 128.9062499999943 50.06709365627803 143.5356159029831 129.6874999999927 51.42025834968842 137.0322030393776 130.4687499999911 52.77342304309881 130.20826542543733 131.2499999999883 54.12658773650712 123.11719664341129 132.0312499999879 55.47975242991959 115.81356397658914 132.8124999999856 56.83291712332893 108.35278451132338 133.5937499999852 58.18608181674141 100.79077149608104 134.3749999999824 59.53924651014971 93.18357596851453 135.1562499999808 60.8924112035601 85.58701172336296 135.9374999999804 62.24557589697257 78.05622209407872 136.7187499999764 63.5987405903788 70.64525397503074 137.4999999999766 64.9519052837923 63.40662257385756 138.2812499999768 66.30506997720582 56.39075779074998 139.0624999999781 67.6582346706214 49.64550251795087 139.8437499999795 69.011399364037 43.21564811492546 140.6249999999833 70.36456405745676 37.142173306773735 141.4062499999847 71.71772875087234 31.461699763589177 142.1874999999861 73.07089344428795 26.2061981859844 142.9687499999875 74.42405813770353 21.40185415410745 143.7499999999889 75.77722283111912 17.068528399391084 144.5312499999903 77.13038752453471 13.220532162831468 145.3124999999917 78.48355221795032 9.864641333280838 146.0937499999931 79.8367169113659 7.000172086978982 146.8749999999944 81.18988160478149 4.625141246781697 147.6562499999958 82.54304629819708 2.7300026010048852 148.4374999999972 83.89621099161268 1.305066857665365 149.2187499999986 85.24937568502827 0.3674784732806286 148.4374999999913 86.60254037844386 -0.002675956420170955 146.8749999999827 86.60254037844386 0.002675956396891298 145.312499999974 86.60254037844386 -0.002675956378941951 143.7499999999653 86.60254037844386 0.0026759563614806086 142.1874999999567 86.60254037844386 -0.002675956348948355 140.624999999948 86.60254037844386 0.0026759563390169974 139.0624999999393 86.60254037844386 -0.0026759563337996357 137.4999999999306 86.60254037844386 0.002675956332585248 135.937499999922 86.60254037844386 -0.0026759563353110504 134.3749999999133 86.60254037844386 0.0026759563428844766 132.8124999999046 86.60254037844386 -0.002675956353599558 131.249999999896 86.60254037844386 0.002675956369876734 129.6874999998873 86.60254037844386 -0.0026759563886754527 128.1249999998786 86.60254037844386 0.002675956413627152 126.5624999999088 86.60254037844386 -0.0026759564405892562 124.9999999999446 86.60254037844386 0.0026759564741570567 123.4374999999803 86.60254037844386 -0.002675956509327347 121.875000000016 86.60254037844386 0.0026759565514577564 120.3125000000518 86.60254037844386 -0.0026759565948823866 118.7500000000875 86.60254037844386 0.0026759566455378087 117.1875000000955 86.60254037844386 -0.0026759566972561905 115.6250000000868 86.60254037844386 0.00267595675640229 114.0625000000781 86.60254037844386 -0.002675956816443854 112.5000000000694 86.60254037844386 0.002675956884052045 110.9375000000607 86.60254037844386 -0.002675956952441796 109.3750000000521 86.60254037844386 0.0026759570284903486 107.8125000000434 86.60254037844386 -0.0026759571052485795 106.2500000000347 86.60254037844386 0.0026759571897200067 104.687500000026 86.60254037844386 -0.0026759572748618894 103.1250000000174 86.60254037844386 0.002675957367742343 101.5625000000087 86.60254037844386 -0.0026759574612793 98.43750000000998 86.60254037844386 -0.002675957664499946 96.87500000001995 86.60254037844386 0.0026759577741723 95.31250000002993 86.60254037844386 -0.0026759578845230226 93.7500000000399 86.60254037844386 0.00267595800258252 92.18750000004988 86.60254037844386 -0.002675958121345151 90.62500000005986 86.60254037844386 0.0026759582477892604 89.06250000006983 86.60254037844386 -0.002675958374967554 87.50000000007981 86.60254037844386 0.0026759585097983866 85.93750000008978 86.60254037844386 -0.002675958645392823 84.37500000009977 86.60254037844386 0.00267595878860638 82.81250000010976 86.60254037844386 -0.0026759589326091596 81.25000000011974 86.60254037844386 0.002675959084205563 79.68750000012972 86.60254037844386 -0.0026759592366241433 78.1250000001397 86.60254037844386 0.0026759593966210974 76.56250000014968 86.60254037844386 -0.002675959557457899 75.00000000015966 86.60254037844386 0.0026759597258391426 73.43750000016963 86.60254037844386 -0.002675959895056287 71.8750000001796 86.60254037844386 0.0026759600718073884 70.31250000018957 86.60254037844386 -0.002675960249437477 68.75000000019955 86.60254037844386 0.0026759604346398335 67.18750000018176 86.60254037844386 -0.0026759606207433255 65.62500000014732 86.60254037844386 0.0026759608143488212 64.06250000011289 86.60254037844386 -0.0026759610087508535 62.50000000009787 86.60254037844386 0.0026759612105104994 60.93750000008563 86.60254037844386 -0.002675961413178612 59.37500
[...]
      <PointData>
        <DataArray type="Float64" Name="w" NumberOfComponents="1" format="ascii">
 1.337980179077491 1.3379807396800207 1.3379833599581719 84748.14754872058 1.3379782206765904 1.3379787812794688 1.3379814015578333 84748.16120759709 94337.50769381227 -1.3379801684863721 1.337980156846534 -1.3379801478718507 1.3379801391411714 -1.337980132875037 1.3379801279093504 -1.3379801253006633 1.3379801246934617 -1.3379801260563546 1.3379801298430576 -1.3379801352005893 1.3379801433391676 -1.3379801527385164 1.3379801652143577 -1.3379801786954002 1.3379801954792896 -1.3379802130644225 1.3379802341296148 -1.337980255841916 1.3379802811696122 -1.3379803070287886 1.337980336601825 -1.3379803666225922 1.3379804004266729 -1.3379804346215345 1.3379804726457953 -1.3379805110248977 1.3379805532606004 -1.337980595831531 1.3379806422717466 -1.3379806890402133 -1.3379807906505155 1.337980845486683 -1.3379809006620342 1.337980959691773 -1.3379810190730779 1.3379810822951244 -1.337981145884266 1.337981213299679 -1.337981281096893 1.337981352703666 -1.3379814247050514 1.3379815005032492 -1.3379815767125387 1.3379816567110148 -1.337981737129415 1.3379818213200343 -1.337981905928603 1.3379819943041493 -1.3379820831191869 1.3379821757203556 -1.3379822687720937 1.337982365574835 -1.3379824627758443 1.3379825636556621 -1.3379826649897135 1.3379827701266624 -1.337982876196818 1.3379829860965875 -1.3379830964880335 1.3379832052629497 -1.3379833048960088 1303.2409557818405 3906.9844210393694 7382.836827653189 11435.54402968664 15959.460549260335 20810.882094252265 25874.78770347924 31071.3761973289 36316.81120657449 41540.476159914484 46684.598849309165 51694.29582240738 56522.32735755217 61128.48212408404 65476.55432075268 69535.60987139089 73279.61174055867 76686.32906941134 79737.60162805096 82419.10795392592 84719.88232981286 86632.29343330796 88151.87681625612 89277.06650311712 90009.09616335221 90351.85934356779 90311.72536994642 89897.42180589087 89119.90637070219 87992.2179098841 86529.35429079371 82667.1278542884 80306.39730136021 77687.50190528807 74833.29612490712 71767.80795149154 68516.1015196888 65104.13271271867 61558.59832170564 57906.78198829457 54176.39225566169 50395.38574804052 46591.787984257266 42793.50586168148 39028.11104703936 35322.626987515374 31703.31128692878 28195.37889537499 24822.751258975433 21607.824057462727 18571.08665338687 15730.84988179459 13103.0990929922 10700.927077053726 8534.264199695543 6610.266081415734 4932.320666640419 3500.086043489491 2312.570623390848 1365.0013005024425 652.5334288326825 183.7392366403143 -1.3379782100854776 1.3379781984456491 -1.3379781894709755 1.3379781807403044 -1.3379781744741777 1.3379781695084987 -1.3379781668998179 1.337978166292624 -1.3379781676555251 1.3379781714422383 -1.337978176799779 1.337978184938367 -1.3379781943377262 1.337978206813576 -1.3379782202946282 1.3379782370785283 -1.3379782546636734 1.3379782757288783 -1.3379782974411933 1.3379783227689044 -1.3379783486280952 1.337978378201145 -1.337978408221927 1.3379784420260223 -1.3379784762208982 1.3379785142451743 -1.3379785526242898 1.3379785948600034 -1.3379786374309448 1.3379786838711716 -1.33797873063965 -1.337978832249973 1.33797888708615 -1.3379789422615114 1.33797900129126 -1.3379790606725754 1.3379791238946301 -1.337979187483777 1.3379792548991933 -1.3379793226964114 1.33797939430319 -1.3379794663045799 1.3379795421027816 -1.3379796183120716 1.3379796983105487 -1.3379797787289496 1.3379798629195714 -1.3379799475281433 1.3379800359036942 -1.3379801247187384 1.3379802173199167 -1.3379803103716628 1.3379804071744106 -1.3379805043754267 1.3379806052552496 -1.3379807065893061 1.337980811726263 -1.3379809177964277 1.3379810276962056 -1.3379811380876623 1.3379812468625896 -1.3379813464956607 1303.2411096839678 3906.9849004388066 7382.837736925281 11435.545449861385 15959.462551840496 20810.884735702544 25874.79102813947 31071.380250564405 36316.816014104574 41540.48173584608 46684.605197853394 51694.30293320033 56522.335228360884 61128.49073429084 65476.56365052419 69535.61988813856 73279.622410451 76686.34036303172 79737.61349986983 82419.12036003379 84719.89521224593 86632.3067358346 88151.89047489698 89277.08045341203 90009.11033145485 90351.87366073747 90311.7397689494 89897.43621246518 89119.92070152787 87992.23208229021 86529.36824279379 82667.14115603345 80306.4101768221 77687.51430817944 74833.30800906155 71767.81927971375 68516.11226934682 65104.14285083204 61558.60783116336 57906.79085318486 54176.400476254 50395.393325166624 46591.7949265081 42793.51218504699 39028.116767402695 35322.632127121076 31703.31587404345 28195.382956313515 24822.75481509529 21607.827129889276 18571.089270720302 15730.852083109226 13103.10091585838 10700.928555114822 8534.265367450716 6610.266969543676 4932.3213112836065 3500.0864954976164 2312.5709122989783 1365.001469928006 652.533497917557 183.73925253409868 331.33457726214823 1290.0962971113233 2822.5064716782076 4872.2064221253595 7385.051804320244 10309.346586955524 13594.687759560939 17191.813904793336 21052.89443112083 25131.53180193378 29382.642938668363 33762.44162295311 38228.47487404072 42739.64152077121 47256.20706545891 51739.8424286234 56153.677820576275 60462.36279380611 64632.140009115035 68630.93074178373 72428.42741814176 75996.19573108776 79307.78322917274 82338.82835958173 85067.17094570104 87472.96146363311 89538.76281986426 91249.64484579758 92593.26962970084 93559.96294806262 94142.77189896324 94358.0405984268 94419.29110462137 94520.20946456358 94659.0357270563 94833.28460983066 95039.72697223802 95274.3658788346 95532.41203333074 95808.26077807794 96095.46853149295 96386.73738635876 96673.90995440083 96947.97162378118 97199.07285943632 97416.573212963 97589.10220304996 97704.65202523135 97750.70225687262 97714.36835475438 97582.58821946214 97342.3440466036 96980.90862491317 96486.1271597029 95846.72881310016 95052.65911232782 94095.4375553693 92968.53827281512 91667.78182450862 90191.75039194655 88542.20281242103 86724.52588857737 94142.77127466018 93559.96171976766 92593.26780970687 91249.64245192091 89538.75988372153 87472.95803145885 85067.16706481649 82338.82408037038 79307.77861537502 75996.1908613073 72428.42238043375 68630.92562838708 64632.13489935547 60462.357773129865 56153.67295763106 51739.83778362475 47256.202694753614 42739.63746061217 38228.471147648896 33762.43825114627 29382.6399521647 25131.52921013614 21052.892233253813 17191.81209522327 13594.686328826447 10309.345504521714 7385.051020765844 4872.205892691418 2822.506153858635 1290.0961412625113 331.3345353908524 94358.04148157593 94419.29286071155 94520.21209341979 94659.03922499651 94833.28896579362 95039.73217215862 95274.37190313588 95532.41885529163 95808.26836986773 96095.47686424364 96386.74642817926 96673.91967298833 96947.98198846482 97199.08383354345 97416.58474940844 97589.11424998131 97704.66452489523 97750.71515623042 97714.38160747297 97582.60178446826 97342.35788144682 96980.9226854497 96486.1414041021 95846.74319415723 95052.67357924121 94095.45205707988 92968.5527536913 91667.79623593608 90191.76468647983 88542.21694395813 86724.53980911616 147.84250867034888 567.6719696086552 1246.3663813703963 2179.0774895618647 3368.7084707764375 4820.784585986707 6537.403309077268 8516.880729188406 10754.337771409033 13241.174726596479 15965.300415424672 18911.58730253705 22062.134062300924 25396.61565216852 28892.606046609566 32525.886545784117 36270.77507442564 40100.39828798271 43986.950292451525 47901.95546686514 51816.496103514226 55701.42665760292 59527.582929687494 63265.97069599904 66887.94440344728 70365.37995623027 73670.83496816728 76777.70184668823 79660.35740575015 82294.30482335597 84656.31022904851 132.00386759865148 528.2220929862268 1191.5766480960897 2125.702858933666 3335.617923921478 4824.833313117874 6594.657263103463 8642.121988501009 10960.141948421919 13538.271674721895 16362.569790819325 19415.897766135342 22678.4683236378 26128.13123322566 29740.694526423118 33490.29245809141 37349.67616273589 41290.50095931925 45283.60481195097 49299.24981299114 53307.35488641923 57277.71615804471 61180.20589319693 64984.96189940299 68662.56726894165 72184.21782678027 75521.88213185074 78648.4547220701 81537.90287145242 84165.40846877496 86507.50574190359 127.56708281553765 517.5361502742286 1183.5930859495745 2135.8427592032795 3380.7858085607704 4921.151135670549 6755.887229845193 8880.366110084442 11285.861117255105 13959.747358202492 16886.091247878983 20045.951352740944 23417.72145621279 26977.53271481866 30699.593876572035 34556.52807769896 38519.68662288268 42559.42892087275 46645.39435290527 50746.7514511104 54832.42467692995 58871.310560811886 62832.47795211042 66685.35420408152 70399.90260344818 73946.78924759911 77297.54127648877 80424.69959607204 83301.96508007852 85904.33991594047 88208.26683061551 127.83878390422994 524.100769508883 1209.1444958910072 2194.748440534937 3487.267862579509 5088.980661272302 6997.545485993472 9206.003301539462 11703.512372694897 14475.579742449723 17504.334842606288 20769.001516697776 24246.270597477454 27910.668110365925 31734.926647182794 35690.30156242947 39746.87978451937 43873.87260939054 48039.874039499344 52213.105727945076 56361.64670675915 60453.642874585035 64457.50470163103 68342.09327092106 72076.89423376547 75632.18354391048 78979.18548206787 82090.22392452974 84938.86878511339 87500.07801864474 89750.33704265801 131.5254910718379 545.3825160458358 1260.026083159224 2289.049010926519 3639.2904744961497 5311.033889756526 7299.736514597799 9596.661375338539 12188.948362420859 15060.056894165977 18190.24228526149 21556.972562286064 25135.322922309762 28898.329216857554 32817.346160524794 36862.384304439045 41002.40373868303 45205.594210113915 49439.63811142416 53671.94859737131 57869.89304647302 62001.001855417184 66033.16214556861 69934.80099564749 73675.05840749221 77223.9510967299 80552.52979257928 83633.03028613976 86439.01974777124 88945.53996394343 91129.2474786642 140.1199010161314 574.8584361886424 1327.8208498353322 2409.763969361182 3824.8048123106532 5572.080133958082 7645.348015780039 10033.551639305995 12721.682788359443 15691.278029028583 18920.79818700874 22386.020502341773 26060.460790598292 29915.76301431232 33922.02592713515 38048.119926542066 42261.99139041181 46530.933390236416 50821.83785507881 55101.43237423478 59336.4977962358 63494.072361166494 67541.64355173103 71447.32786770971 75180.0417454698 78709.66454154153 82007.19465675652 85044.9005841149 87796.4675848829 90237.14180843456 92343.87239459137 147.99845847791897 612.5706965435444 1408.9403468016258 2548.0411137813176 4033.0230296179234 5860.0406740503595 8020.284964303408 10500.72531316023 13284.379443961549 16350.798990493555 19676.626120000732 23236.04164547838 27001.11964224797 30942.18603763595 35028.171474515846 39226.91929796879 43505.46930637102 47830.32612212376 52167.70497251333 56483.760576188484 60744.801214392966 64917.487797123955 68969.02176813142 72867.32289559055 76581.19778508398 80080.50146653733 83336.2929328305 86320.98608752986 89008.4972249408 91374.38979120714 93396.01863391274 160.16698150852181 653.1010518646675 1497.3277400019738 2698.5588746313497 4256.15874972498 6164.469776107311 8412.597362853669 10985.056716739933 13862.680860616996 17023.181824749125 20441.51607954789 24090.292426285927 27940.1956479971 31960.339981960093 36118.58411041391 40381.83490923653 44716.32647434516 49087.877088751884 53462.12866509888 57804.768257706404 62081.73595826923 66259.4205181801 70304.84301684445 74185.83139208957 77871.18728700311 81330.8461825496 84536.03227030068 87459.4092474474 90075.22871162748 92359.47639979373 94290.01737511117 170.27895765059066 697.9520399757693 1591.3873383002956 2855.2641282535897 4486.969280185117 6477.388951599815 8812.784044163727 11475.578179572443 14444.634435667556 17695.730560610442 21202.12089697462 24934.95718639969 28863.62881672082 32956.10552107533 37179.25939825658 41499.15416405552 45881.311723906845 50290.95910585803 54693.25961826767 59053.52902519462 63337.43679343069 67511.19612489875 71541.74441150771 75396.91471649683 79045.60023405068 82457.91302694676 85605.33846932318 88460.88610157181 90999.23814487409 93196.8977820343 95032.33640805745 183.66194438727422 742.5033078215171 1686.76968770611 3015.1181722404654 4720.583385365532 6791.819788889302 9212.83369527989 11963.52635377789 15020.5901355507 18358.04098351677 21947.551907070734 25758.841329085404 29760.06250477853 33918.13179707374 38199.02173073354 42568.036582721434 46990.0709028557 51429.84894626248 55852.14551873576 60221.99358895771 64504.88070377282 68666.93399700812 72675.09598807704 76497.2932031421 80102.5985563918 83461.38854153482 86545.49672517594 89328.36508243294 91785.19311973566 93893.08634275488 95631.20672642485 194.34434460827927 788.9142960671171 1783.1302054367407 3173.972639881791 4952.171976167414 7102.710658854332 9606.617056203657 12441.692756695611 15582.703723369543 19001.81746899602 22669.12405741585 26553.01707778291 30620.50419528601 34837.51544654714 39169.1971648056 43580.17759498069 48034.80843431071 52497.39198584236 56932.39577664946 61304.65291473011 65579.55100182733 69723.21220446438 73702.66523390383 77486.0105316922 81042.58021948773 84343.09414755246 87359.81248345455 90066.68636000133 92439.508420614 94456.06213619943 96096.2719832069 207.78969706188005 833.1562844333707 1877.101021967783 3330.307267228361 5178.899278871801 7405.5435920197415 9988.993389713496 12904.546452671568 16124.875837529637 19620.490140785274 23360.02144465991 27310.569573360524 31438.051007702026 35707.49527472637 40083.305600929096 44529.50723160866 49009.983326607085 53488.69242898592 57929.87139599943 62298.22833564847 66559.12577323572 70678.75504675214 74624.30402343208 78364.119247129 81867.86332376974 85106.66906597625 88053.29177128381 90682.2593615429 92970.02216240932 94895.1044994061 96438.25544924682 218.05214478240705 877.8077540681486 1969.2140802767558 3481.2162545420174 5397.605110434657 7697.34886639654 10356.271514320943 13347.649786255839 16642.326601530694 20209.085115074195 24015.107066503013 28026.30813917422 32207.60636844365 36523.192566363934 40936.79353818898 45411.90863301129 49912.02644359502 54400.831439015004 58842.399743419366 63201.38390751424 67443.18914703067 71534.1426174223 75441.6566921643 79134.38763565655 82582.39087160969 85757.2731138956 88632.34297958526 91182.7615844316 93385.69179257001 95220.44846242332 96668.65215884814 230.80082155601335 919.1706103926177 2056.756225797708 3626.2266997240163 5606.8440700903075 7975.351088478283 10705.385082472778 13767.838801290853 17131.592079331207 20763.903413014672 24630.64026278681 28696.569213086597 32925.66268790566 37281.35712335318 41726.77975841679 46224.96911279379 50739.085417913266 55232.606329489245 59669.51188654215 64014.461588043545 68232.9642389762 72291.54187506638 76157.88883336727 79801.0266864047 83191.45660187199 86301.31018607049 89104.4983749789 91576.86020683727 93696.31307099029 95443.00183871637 96799.44995514088 240.12861313567183 960.1223838684597 2140.7996165796144 3763.2791522063885 5804.627700411422 8238.04615584406 11034.397015469249 14162.697476383453 17590.151138987567 21282.44360676521 25204.14146551168 29318.97680748239 33590.069244824044 37980.15878897988 42451.83556841307 46967.74682639019 51490.78919467961 55984.29352490561 60412.20197164936 64739.237404679305 68931.06652569253 72954.4580079032 76777.43710954138 80369.43756043281 83701.45071922333 86746.17371719345 89478.15767390774 91873.95456495069 93912.26506466442 95574.08888984522 96842.87339331149 251.75606969829786 997.1847229230572 2219.0955859216233 3892.6020813087807 5990.4782247995145 8483.896107986991 11341.724978517408 14530.780359230035 18016.47202794795 21763.12699118228 25734.156128662416 29892.293587632434 34199.8595619511 38618.979045618515 43111.776009839814 47640.564994560904 52168.03630814081 56657.43069789669 61072.70591843195 65378.697944705375 69541.27799402003 73527.50564241057 77305.77849055355 80845.98003825202 84119.62655473663 87100.01233973332 89762.35509905592 92083.94245418668 94044.27714180596 95625.22374391559 96811.1582477483 259.85359398450413 1033.416561219588 2293.0803402860133 4012.7253082991947 6163.215216629941 8712.43182742265 11626.688039815424 14871.129191158692 18409.678431295197 22205.26405556054 26220.16100952813 30416.22312838238 34755.062184111404 39198.24331037143 43707.48132385482 48244.81987955937 52772.79925150803 57254.61971724293 61654.30084589768 65936.83555770565 70068.33984643364 74016.20022596083 77749.21949396617 81237.7604122193 84453.88889424558 87371.51745058893 89966.54745621364 92217.01234024468 94103.22234913043 95607.90721122066 96716.36023606235 270.17317182510516 1065.496714050127 2360.806570618442 4124.358874978803 6323.0394463841585 8922.983130724524 11888.759527943768 15183.532320545672 18769.632991245904 22608.815476324857 26662.36678074366 30891.29837113999 35256.56578284455 39719.251115778956 44240.72550486828 48782.81273921409 53307.950817394034 57779.34601143769 62161.121382253106 66418.46302923025 70517.76434482145 74426.76775692463 78114.70542700261 81552.43962385532 84712.60206883051 87569.7337152973 90100.4254335497 92283.45735699308 94099.93932629365 95533.45262728381 96570.18792506965 276.91420495450393 1096.605306504687 2423.9663627017158 4226.432000716188 6469.331165910185 9115.808487651097 12128.144226774182 15468.06866602407 19096.63607503971 22974.391461005678 27061.657103449546 31318.718632057247 35705.96397946797 40184.0429277935 44714.03310891652 49257.592517399615 53777.10372642394 58235.81744858216 62597.99460207208 66829.04507354442 70895.66496539039 74765.973370928 78409.64817350262 81798.06201701274 84904.41887279914 87703.88974878957 90173.74941855257 92293.51405205217 94045.07658799112 95412.84269762825 96383.86684996277 285.8660579311713 1123.5212143715821 2480.8161819871593 4319.987669989849 6602.7566365018165 9290.841503210766 12345.055976343961 15725.39402744293 19391.535307932914 23303.042245317105 27419.421036686777 31700.268228050838 36105.45211070429 40595.2618089732 45130.53996301074 49672.82088284042 54184.469844957464 58628.817352363556 62970.29104364313 67174.54759118437 71208.60392248501 75040.96846496766 78641.77274277348 81982.90268421931 85038.13097610317 87783.25034809887 90196.20569474246 92257.22702392485 93948.96264557376 95256.6083544329 96168.03595025912 291.2465504388157 1149.5093827716814 2533.216120823946 4404.226455970637 6723.082093956326 9448.840424356898 12540.312507234947 15956.307931524945 19655.448831829653 23596.282103184894 27737.51913533025 32038.18094898054 36457.70033935669 40956.04979873112 45493.87960322184 50032.645454086036 54534.73144109589 58963.57502291498 63283.792361708896 67461.30327477766 71463.45645525631 75259.15494870645 78818.98294635427 82115.33382339137 85122.5378028225 87816.99091109446 90177.28468225169 92184.33363697403 93821.50275988907 95074.7336790102 95932.66442043938 298.86190317032117 1171.4148988014324 2579.56232115219 4480.413627248176 6831.288620766398 9590.149980777278 12714.631365372034 16162.057954664098 19889.8962566548 23855.90247708842 28018.139265628106 32335.08398417631 36765.77621760877 41269.936383979504 45808.07211462711 50341.5931780739 54832.929855315335 59245.649558233454 63544.57324363132 67695.89311923165 71667.29237708364 75428.06627617856 78949.24367221989 82203.71047982891 85166.33458108177 87814.08995309097 90126.18166424666 92084.17064126664 93672.09451819539 94876.58695766256 95686.99330000745 302.9481022348526 1192.5566333853576 2621.8255366388908 4547.931032861153 6927.398210007504 9715.861653786402 12869.239823757938 16343.92378076654 20096.53975373356 24084.01631356086 28263.784135901464 32593.884914082773 37033.04188497269 41540.75955735052 46077.436453381175 50604.47082472574 55084.36429722769 59480.82923615273 63758.89947733297 67885.04246062197 71827.27231433106 75555.26570705118 79040.4801077529 82256.27246634621 85178