<?xml version="1.0" encoding="utf-8"?>
<VTKFile type="UnstructuredGrid" version="1.0" byte_order="LittleEndian" header_type="UInt64">
  <UnstructuredGrid>
    <Piece NumberOfPoints="10201" NumberOfCells="20000">
      <Points>
        <DataArray type="Float64" Name="Points" NumberOfComponents="3" format="ascii">
 0.0 0.0 0.0018230035172534143 50.0 0.0 0.0018230067943773816 100.0 0.0 0.0018230210175467362 125.0 43.30127018922193 382.9678485376402 150.0 86.60254037844386 0.0018230017515058676 100.0 86.60254037844386 0.0018230050286364024 50.0 86.60254037844386 0.001823019251824438 25.0 43.30127018922193 382.96847224269106 75.0 43.30127018922193 421.1665006665862 0.9999999999960766 0.0 -0.0018230034855057913 1.999999999992024 0.0 0.0018230034502229495 2.99999999998778 0.0 -0.001823003419969651 3.999999999984196 0.0 0.0018230033896327754 4.99999999998078 0.0 -0.0018230033644919224 5.999999999977303 0.0 0.0018230033414936497 6.999999999972618 0.0 -0.0018230033241424894 7.999999999967426 0.0 0.0018230033101255387 8.999999999962235 0.0 -0.0018230033013648397 9.999999999957042 0.0 0.0018230032965820243 10.99999999995185 0.0 -0.0018230032964778944 11.99999999994666 0.0 0.001823003300925085 12.99999999994147 0.0 -0.0018230033095248612 13.99999999993628 0.0 0.0018230033232019393 14.99999999993109 0.0 -0.0018230033405463226 15.99999999992657 0.0 0.0018230033634298445 16.99999999992491 0.0 -0.0018230033895444888 17.99999999992327 0.0 0.0018230034216065547 18.99999999992164 0.0 -0.0018230034565175051 19.99999999992 0.0 0.001823003497733784 20.99999999991837 0.0 -0.0018230035414658911 21.99999999991673 0.0 0.0018230035918132765 22.9999999999151 0.0 -0.001823003644388589 23.99999999991346 0.0 0.001823003703845816 24.99999999991182 0.0 -0.0018230037652844388 25.99999999991019 0.0 0.0018230038338323846 26.99999999990855 0.0 -0.0018230039041524002 27.99999999990692 0.0 0.001823003981773944 28.99999999990528 0.0 -0.0018230040609914597 29.99999999990365 0.0 0.0018230041476713144 30.99999999990201 0.0 -0.0018230042358007906 31.99999999990165 0.0 0.0018230043315255262 32.99999999990702 0.0 -0.0018230044285797195 33.99999999991248 0.0 0.0018230045333374 34.99999999991795 0.0 -0.001823004639327424 35.99999999992342 0.0 0.0018230047531074972 36.99999999992889 0.0 -0.00182300486804313 37.99999999993437 0.0 0.0018230049908364546 38.99999999993982 0.0 -0.00182300511472617 39.9999999999453 0.0 0.001823005246524843 40.99999999995077 0.0 -0.0018230053793760377 41.99999999995624 0.0 0.0018230055201733286 42.99999999996172 0.0 -0.0018230056619923075 43.99999999996718 0.0 0.0018230058117824366 44.99999999997265 0.0 -0.0018230059625744897 45.99999999997812 0.0 0.001823006121352563 46.99999999998359 0.0 -0.0018230062811220803 47.99999999998906 0.0 0.0018230064488840795 48.99999999999453 0.0 -0.0018230066176347238 50.99999999998968 0.0 -0.0018230069721121103 51.99999999997935 0.0 0.0018230071578328472 52.99999999996903 0.0 -0.0018230073445539663 53.99999999995871 0.0 0.0018230075392507647 54.99999999994839 0.0 -0.0018230077349600065 55.99999999993807 0.0 0.00182300793863142 56.99999999992774 0.0 -0.001823008143330021 57.99999999991742 0.0 0.0018230083559750052 58.9999999999071 0.0 -0.001823008569663696 59.99999999989678 0.0 0.0018230087912816557 60.99999999988646 0.0 -0.0018230090139608908 61.99999999987614 0.0 0.0018230092445516203 62.99999999986581 0.0 -0.0018230094762214774 63.9999999998555 0.0 0.001823009715785077 64.99999999984517 0.0 -0.0018230099564453422 65.99999999983486 0.0 0.00182301020498214 66.99999999982452 0.0 -0.001823010454632317 67.99999999981421 0.0 0.0018230107121428496 68.99999999980389 0.0 -0.001823010970782276 69.99999999979356 0.0 0.0018230112372673332 70.99999999978324 0.0 -0.0018230115048951865 71.99999999977292 0.0 0.001823011780355583 72.9999999997626 0.0 -0.0018230120569709201 73.99999999975228 0.0 0.0018230123414076783 74.99999999974196 0.0 -0.0018230126270097175 75.99999999973163 0.0 0.0018230129204239317 76.9999999997213 0.0 -0.00182301321501167 77.99999999971098 0.0 0.0018230135174034429 78.99999999970063 0.0 -0.0018230138209754836 79.9999999996903 0.0 0.0018230141323453577 80.99999999967999 0.0 -0.001823014444903854 81.99999999967476 0.0 0.001823014765254598 82.9999999996924 0.0 -0.0018230150868008288 83.9999999997105 0.0 0.0018230154161228535 84.9999999997286 0.0 -0.001823015746648321 85.99999999974669 0.0 0.0018230160849340116 86.99999999976478 0.0 -0.0018230164244713955 87.99999999978287 0.0 0.0018230167717520167 88.99999999980096 0.0 -0.0018230171203351964 89.99999999981907 0.0 0.0018230174765083544 90.99999999983716 0.0 -0.0018230178340213543 91.99999999985525 0.0 0.0018230181989232913 92.99999999987334 0.0 -0.0018230185656491124 93.99999999989143 0.0 0.0018230189396846658 94.99999999990953 0.0 -0.0018230193166531702 95.99999999992761 0.0 0.001823019699506298 96.99999999994571 0.0 -0.0018230200850985745 97.9999999999638 0.0 0.001823020461589959 98.9999999999819 0.0 -0.001823020817634905 100.4999999999993 0.866025403783218 2.8107282873179305 100.9999999999986 1.732050807566395 8.570703067847925 101.4999999999978 2.598076211349446 16.373721600924796 101.9999999999972 3.464101615132853 25.685800562628735 102.4999999999966 4.330127018916238 36.31498999872515 102.9999999999959 5.196152422699576 48.01134190552281 103.499999999995 6.062177826482378 60.57928962971747 103.9999999999938 6.928203230264835 73.86972736305219 104.4999999999928 7.794228634047546 87.737006541193 104.9999999999919 8.660254037830295 102.05383342176123 105.4999999999908 9.526279441612816 116.70822228969433 105.9999999999895 10.39230484539505 131.59598161186793 106.4999999999888 11.25833024917829 146.62244979526022 106.9999999999875 12.12435565296053 161.7013665587067 107.4999999999864 12.99038105674305 176.7529741311042 107.9999999999854 13.85640646052568 191.70393633927597 108.4999999999841 14.72243186430786 206.48679985015235 108.9999999999834 15.5884572680911 221.03929823131736 109.4999999999825 16.45448267187398 235.30409352553994 109.9999999999812 17.32050807565622 249.2284589991181 110.49999999998 18.18653347943867 262.76393121601143 110.9999999999794 19.05255888322188 275.86609419575444 111.499999999978 19.91858428700394 288.49436428552565 111.999999999977 20.78460969078673 300.6117774307085 112.4999999999764 21.65063509457012 312.1848237934656 112.999999999977 22.51666049835564 323.1832905519625 113.499999999978 23.3826859021417 333.58011316274445 113.9999999999789 24.24871130592775 343.3512459565195 114.4999999999798 25.1147367097138 352.47554048545214 114.999999999981 25.98076211350027 360.93463144414267 115.4999999999823 26.84678751728694 368.71283226327387 115.9999999999832 27.712812921073 375.7970363155739 116.4999999999842 28.57883832485905 382.1766236661493 116.9999999999851 29.4448637286451 387.8433723618517 117.499999999986 30.31088913243115 392.79137560490875 117.999999999987 31.1769145362172 397.0169604394494 118.4999999999879 32.04293994000326 400.51861227250305 118.9999999999888 32.90896534378931 403.2969005354218 119.4999999999898 33.77499074757537 405.3544063438165 119.9999999999907 34.64101615136141 406.6956545996121 120.4999999999916 35.50704155514747 407.3270450234999 120.9999999999926 36.37306695893352 407.256787865944 121.4999999999935 37.23909236271957 406.4948388952051 121.9999999999944 38.10511776650563 405.0528359345145 122.4999999999953 38.97114317029168 402.9440369961647 122.9999999999963 39.83716857407773 400.18325901515027 123.4999999999972 40.70319397786378 396.7868165926524 123.9999999999981 41.56921938164983 392.772461654064 124.4999999999991 42.43524478543588 388.15932347355965 125.4999999999996 44.1672955930057 377.21973957466093 125.9999999999993 45.0333209967896 370.9378970992758 126.4999999999976 45.89934640057117 364.1463571884978 126.9999999999974 46.76537180435519 356.8702309199507 127.4999999999961 47.63139720813746 349.135642448187 127.9999999999967 48.49742261192286 340.9696663205043 128.4999999999949 49.36344801570417 332.4002642367653 128.9999999999939 50.22947341948691 323.45621984431216 129.4999999999924 51.09549882326868 314.16707292951355 129.9999999999929 51.96152422705403 304.5630514446825 130.499999999991 52.8275496308351 294.6750027244642 130.9999999999888 53.69357503461575 284.5343225885344 131.4999999999887 54.5596004384001 274.1728817664208 131.999999999988 55.42562584218329 263.62295050649595 132.4999999999867 56.2916512459654 252.91712071197153 132.9999999999848 57.15767664974668 242.0882252053188 133.4999999999851 58.02370205353154 231.16925465806614 133.9999999999841 58.88972745731422 220.19327112700742 134.4999999999819 59.75575286109488 209.19331749048249 134.9999999999805 60.62177826487698 198.20232400458553 135.4999999999814 61.48780366866296 187.25301122343598 135.9999999999799 62.35382907244482 176.37778858648147 136.4999999999767 63.21985447622372 165.60864818683714 136.9999999999769 64.0858798800084 154.9770545493011 137.4999999999766 64.9519052837923 144.51383060748384 137.9999999999762 65.8179306875762 134.24903713764564 138.4999999999771 66.68395609136218 124.21184881040348 138.999999999978 67.54998149514816 114.43042491489894 139.4999999999789 68.41600689893414 104.93177451366934 139.9999999999808 69.28203230272177 95.74161819438575 140.4999999999831 70.14805770651026 86.88424701721817 140.999999999984 71.01408311029624 78.38237406033252 141.4999999999849 71.88010851408222 70.25698697796561 141.9999999999858 72.7461339178682 62.527203769665235 142.4999999999867 73.61215932165418 55.21011870569367 142.9999999999876 74.47818472544016 48.32066311166266 143.4999999999884 75.34421012922613 41.87149198245403 143.9999999999893 76.21023553301211 35.872834026870265 144.4999999999902 77.07626093679809 30.332415049026615 144.9999999999911 77.94228634058408 25.25549512879535 145.499999999992 78.80831174437006 20.644734559414147 145.9999999999929 79.67433714815603 16.500307617129504 146.4999999999938 80.54036255194201 12.820565270770066 146.9999999999947 81.40638795572798 9.6018
[...]
      <PointData>
        <DataArray type="Float64" Name="w" NumberOfComponents="1" format="ascii">
 0.9115017586267071 0.9115033971886908 0.911510508773368 191483.9242688201 0.9115008757529338 0.9115025143182012 0.911509625912219 191484.23612134554 210583.2503332931 -0.9115017427528956 0.9115017251114748 -0.9115017099848255 0.9115016948163877 -0.9115016822459612 0.9115016707468249 -0.9115016620712447 0.9115016550627694 -0.9115016506824198 0.9115016482910121 -0.9115016482389472 0.9115016504625425 -0.9115016547624306 0.9115016616009697 -0.9115016702731613 0.9115016817149223 -0.9115016947722444 0.9115017108032774 -0.9115017282587525 0.911501748866892 -0.9115017707329456 0.9115017959066383 -0.9115018221942945 0.911501851922908 -0.9115018826422194 0.9115019169161923 -0.9115019520762001 0.9115019908869719 -0.9115020304957299 0.9115020738356572 -0.9115021179003953 0.9115021657627631 -0.9115022142898598 0.9115022666687 -0.911502319663712 0.9115023765537486 -0.9115024340215651 0.9115024954182273 -0.9115025573630849 0.9115026232624215 -0.9115026896880188 0.9115027600866643 -0.9115028309961537 0.9115029058912183 -0.9115029812872448 0.9115030606762815 -0.9115031405610402 0.9115032244420398 -0.9115033088173619 -0.9115034860560551 0.9115035789164236 -0.9115036722769831 0.9115037696253824 -0.9115038674800032 0.91150396931571 -0.9115040716650105 0.9115041779875026 -0.9115042848318481 0.9115043956408279 -0.9115045069804454 0.9115046222758101 -0.9115047381107387 0.9115048578925385 -0.9115049782226711 0.91150510249107 -0.9115052273161585 0.9115053560714248 -0.9115054853911381 0.9115056186336666 -0.9115057524475932 0.9115058901777915 -0.91150602848546 0.9115061707038392 -0.9115063135048588 0.9115064602119658 -0.911506607505835 0.9115067587017214 -0.9115069104877418 0.9115070661726788 -0.911507222451927 0.911507382627299 -0.9115075434004144 0.9115077080614268 -0.9115078733241605 0.9115080424670058 -0.9115082122356978 0.9115083858760084 -0.9115085601675982 0.9115087382541772 -0.9115089170106772 0.9115090994616456 -0.9115092828245562 0.9115094698423329 -0.9115096583265851 0.9115098497531491 -0.9115100425492872 0.9115102307949795 -0.9115104088174525 1405.3641436589653 4285.351533923962 8186.860800462398 12842.900281314367 18157.494999362578 24005.670952761408 30289.644814858737 36934.8636815261 43868.5032705965 51026.916710880614 58354.111144847164 65797.99080593397 73311.2248976301 80850.68327935335 88376.4870655521 95851.96816963798 103243.39992507617 110519.64911565869 117652.04676276997 124614.22949955905 131381.9656080057 137933.04709787722 144247.18214276282 150305.88871535426 156092.4118967328 161591.64527598125 166790.05658137222 171675.62297825975 176237.77024272608 180467.31572207133 184356.41613163694 187898.51815778695 191088.31183307464 193921.68618092587 196395.68780245437 198508.4802197247 200259.3061362515 201648.4502677109 202677.20317190824 203347.82729980606 203663.52251174996 203628.393932972 203247.41944760253 202526.41796725726 201472.01849808235 200091.62950757513 198393.40829632618 196386.230827032 194079.66173677982 188609.86978733048 185468.9485496379 182073.1785942489 178435.11545997535 174567.8212240935 170484.83316025216 166200.13211838264 161728.1099221561 157083.53646475676 152281.52572234126 147337.5013622321 142267.1612942672 137086.4408832104 131811.47525324798 126458.56035598577 121044.1126026594 115584.62732903307 110096.6355635037 104596.65874524125 99101.16200229277 93626.50561171799 88188.89429324074 82804.32409341857 77488.52727465055 72256.91530374192 67124.51856882282 62105.92440520174 57215.21245744947 52465.88725683467 47870.809097192876 43442.12350860909 39191.187030166264 35128.49348898281 31263.601884832617 27605.059352846834 24160.33155583133 20935.745991227017 17936.417013435133 15166.207524513307 12627.747564397674 10322.367279707074 8250.153808564752 6410.282635385033 4800.919921407043 3419.493772619065 2265.084554094702 1336.7241439945465 635.4951707428397 175.96938356557723 -0.9115008598791603 0.9115008422377935 -0.9115008271111992 0.9115008119428204 -0.9115007993724429 0.9115007878733531 -0.9115007791978185 0.9115007721893744 -0.9115007678090578 0.9115007654176769 -0.9115007653656415 0.9115007675892897 -0.9115007718892696 0.9115007787279278 -0.9115007874002514 0.9115007988421238 -0.9115008118995227 0.9115008279306079 -0.9115008453861481 0.9115008659943633 -0.9115008878604826 0.9115009130342296 -0.9115009393219231 0.9115009690505845 -0.911500999769959 0.9115010340439902 -0.9115010692040563 0.911501108014918 -0.9115011476237916 0.9115011909638113 -0.9115012350286262 0.9115012828910716 -0.9115013314182253 0.9115013837970725 -0.9115014367920824 0.9115014936821273 -0.9115015511499758 0.9115016125466754 -0.9115016744915799 0.9115017403909736 -0.9115018068166338 0.9115018772153479 -0.9115019481249212 0.9115020230200696 -0.911502098416181 0.9115021778053151 -0.9115022576901827 0.9115023415713002 -0.9115024259467522 -0.9115026031856902 0.9115026960462049 -0.9115027894069306 0.9115028867554991 -0.9115029846102957 0.9115030864461681 -0.9115031887956386 0.9115032951183221 -0.911503401962865 0.9115035127720374 -0.9115036241118475 0.9115037394073979 -0.9115038552425312 0.9115039750245563 -0.9115040953549014 0.9115042196234958 -0.9115043444487835 0.9115044732042418 -0.9115046025241358 0.9115047357668609 -0.9115048695809792 0.9115050073113483 -0.9115051456191713 0.911505287837691 -0.9115054306388543 0.9115055773461148 -0.9115057246401351 0.9115058758361494 -0.9115060276222875 0.911506183307371 -0.9115063395867842 0.911506499762336 -0.9115066605356393 0.9115068251968289 -0.9115069904597295 0.9115071596027465 -0.911507329371612 0.9115075030120955 -0.911507677303873 0.9115078553906663 -0.9115080341473958 0.9115082165986121 -0.9115083999617881 0.9115085869798241 -0.9115087754643323 0.911508966891156 -0.9115091596875459 0.9115093479334755 -0.911509525956174 1405.365724499391 4285.356260077171 8186.869609871249 12842.913768361195 18157.51370568058 24005.695392204205 30289.675466349057 36934.90103420745 43868.54774261641 51026.96874391393 58354.171069537755 65798.05893940349 73311.30133911023 80850.76830560181 88376.58094009534 95852.07103562326 103243.51198190675 110519.77035504617 117652.17749502728 124614.3698756866 131382.11579911178 137933.20720832757 144247.35222410943 150306.06888787085 156092.6021435436 161591.8456145387 166790.2668296027 171675.84274222644 176237.9991459478 180467.55336600787 184356.66207425832 187898.77197411552 191088.5729475585 193921.95419710755 196395.96230081064 198508.76103034648 200259.59295573164 201648.7425666214 202677.50052864946 203348.12899364636 203663.8280679179 203628.7027494023 203247.73091852415 202526.73148582544 201472.33351896988 200091.9453592763 198393.7242688823 196386.54617890267 194079.97570320583 188610.1787763372 185469.25389931112 182073.4797495399 178435.41197354914 174568.11261643458 170485.1189356058 166200.41176404746 161728.3829891421 157083.80250362828 152281.78446982318 147337.7526414051 142267.40483159912 137086.67640550702 131811.7025029184 126458.77915519664 121044.32287588448 115584.82908783617 110096.82867942753 104596.84313254508 99101.33768950966 93626.67264790752 88189.05260605113 82804.47369665481 77488.66825836725 72257.04773695265 67124.64257494641 62106.040023967005 57215.31977274941 52465.98641849599 47870.90031873664 43442.206980360315 39191.26287342847 35128.56191422046 31263.66326268277 27605.114051035755 24160.37994477792 20935.788308622374 17936.45356860134 15166.238651751702 12627.773637452201 10322.388725256498 8250.17106970068 6410.296156156496 4800.930131473623 3419.5011098329032 2265.089507423071 1336.7271312124776 635.4966223948198 175.9697834259426 307.96660839991364 1210.5516106156874 2675.676266348216 4669.184706512816 7158.018882428582 10110.2575011743 13494.467524024667 17279.668050242155 21435.483743125205 25932.134988265887 30740.379312585028 35831.49949295738 41177.30731854822 46750.13689100432 52522.8357810062 58468.76116986177 64561.77861952157 70776.26158978374 77087.09231082971 83469.66453058178 89899.88794360954 96354.19437659766 102809.54567116548 109243.44332719877 115633.93990104324 121959.65213811786 128199.77586835957 134334.10258419326 140343.03759912588 146207.61984757907 151909.54288373172 157431.17718920184 162755.59350746532 167866.58724732732 172748.70313194784 177387.2606118369 181768.37907287097 185879.003244286 189706.92804216087 193240.82265214168 196470.2542422618 199385.71019580378 201978.6185902363 204241.36789343617 206167.32433463933 207750.84739766616 208987.30336435558 209873.07640691055 210405.57741821435 210601.22480081892 210655.03218621598 210744.3044104428 210868.42637917228 211026.53390884324 211217.51043892413 211439.98323333287 211692.3188623082 211972.61777842607 212278.70926133063 212608.14558290644 212958.19643655373 213325.84370842474 213707.7762675687 214100.38589178832 214499.7641356591 214901.700362237 215301.6816767796 215694.89470294197 216076.2299618157 216440.2886931369 216781.3924106189 217093.59616369894 217370.70521135477 217606.29550414113 217793.73824508826 217926.2287039856 217996.81940112152 217998.45789233447 217924.0288647457 217766.40097138926 217518.4781049829 217173.25473386107 216723.8761858127 216163.7024371232 215486.37625252063 214685.8943752188 213756.68234547597 212693.6729015452 211492.38689509177 210149.01723212298 208660.5151529638 207024.67883923816 205240.24340116692 203306.97434678703 201225.75919523308 198998.70750768937 196629.23927170693 194122.19908745054 210405.5760180712 209873.07359306648 208987.2991006979 207750.84170543822 206167.3172931743 204241.3595391941 201978.60895645482 199385.69922702335 196470.24197060073 193240.8090738089 189706.91328882833 185878.9874622856 181768.3621922807 177387.24260817005 172748.6839648896 167866.56677646458 162755.5717104285 157431.15406401522 151909.51848018036 146207.59411050606 140343.01043970493 134334.07402047532 128199.74592966896 121959.62085631312 115633.90748355493 109243.41001463651 102809.51181019872 96354.16029345685 89899.85393117348 83469.63082410439 77087.05914940081 70776.22928236249 64561.747594124055 58468.73173782852 52522.80806681421 46750.11095621118 41177.28321998947 35831.4773856893 30740.359420906007 25932.11746140704 21435.468697561053 17279.655500115336 13494.457437793708 10110.24973809668 7158.013237569018 4669.180954499003 2675.674069921706 1210.5506128954528 307.9663467880861 210601.23130061268 210655.04505729783 210744.32354576752 210868.4518460269 211026.56576525175 211217.54882705162 211440.02831867945 211692.37071980553 211972.67670287163 212278.7755539659 212608.2196049076 212958.2784545173 213325.9337802735 213707.87438143772 214100.4920023489 214499.8781193408 214901.82215813748 215301.81123210906 215695.03205145974 216076.37515105534 216440.44170731082 216781.553232255 217093.76489768422 217370.88184389495 217606.47999702816 217793.93057296902 217926.42878675438 217997.02708050178 217998.67297235344 217924.25120789398 217766.6303731226 217518.71427743844 217173.49759391125 216724.1257564504 216163.9587665161 215486.6391899736 214686.1636414321 213756.9576802829 212693.95394107862 211492.67335347141 210149.30881980312 208660.81144730878 207024.97935541839 205240.5475577074 203307.28147802048 201226.06859823843 198999.01848796732 196629.55111794843 194122.51123888235 147.23779227844267 562.6555300088993 1226.686569481468 2127.64083393162 3262.391646630608 4632.867031698374 6241.753124984526 8091.486855867887 10183.881920054519 12519.668803653021 15098.341585231774 17918.065159573096 20975.654276487774 24266.60138112117 27785.103380649198 31524.12397118296 35475.46932896567 39629.857696593695 43976.99786047727 48505.67037632241 53203.80510389418 58058.55882856233 63056.39148961203 68183.13917715647 73424.08511404022 78764.02796758183 84187.34713423575 89678.06565936682 95219.9102905785 100796.36904700994 106390.74631749911 111986.21559820061 117565.87005103828 123112.77099721311 128609.99431976612 134040.67515831665 139388.05082781884 144635.5022547365 149766.59391059325 154765.1124270546 159615.10395755246 164300.91039899757 168807.20470169047 173119.02530454376 177221.8095171355 181101.42657592602 184744.20980394192 188136.9882155771 191267.11752689202 132.0612268343736 521.3594172734604 1158.6798047117902 2039.7170792589543 3164.348147817154 4534.472990259206 6153.173417021049 8022.931514084089 10145.201878130261 12520.347150841806 15147.366242792072 18023.82325870184 21145.89424772147 24508.38892478286 28104.800612996656 31927.38099369411 35967.216310156684 40214.309495882626 44657.66410335144 49285.36694653835 54084.67035739541 59042.072555256054 64143.39501062981 69373.85721624095 74718.14878525953 80160.49822246395 85684.73885263914 91274.3719478794 96912.62684816284 102582.51858843365 108266.90275110242 113948.52817228714 119610.08725273324 125234.26401489058 130803.78021969442 136301.43988797307 141710.17180008593 147013.070600673 152193.43649497093 157234.81347304268 162121.0263607346 166836.2169062118 171364.8788324872 175691.89198676738 179802.55575919643 183682.6217339712 187318.32579396694 190696.4197893834 193804.20260654986 125.34370643403584 498.4655628732028 1120.173611733102 1991.9755530395573 3116.2612138044005 4495.966113999132 6133.985874280959 8032.681372288392 10193.24307290907 12615.464531005262 15297.72440743627 18236.952574854582 21428.63770316111 24866.87838829364 28544.452526774843 32452.896637492944 36582.588285766935 40922.832450626665 45461.94944325244 50187.36082568628 55085.673406329064 60142.76111973334 65343.843668609574 70673.56218278338 76116.05167734697 81655.01022364786 87273.76507949602 92955.3357459845 98682.49407932897 104437.82161158074 110203.76435346148 115962.68515553747 121696.91364026518 127388.79397329137 133020.73078257428 138575.23315440773 144034.95696936152 149382.74567640264 154601.66960979754 159675.06398068077 164586.5657499397 169320.14944859903 173860.162089176 178191.35708316072 182298.92758406085 186168.5390297874 189786.36134096177 193139.10026372317 196214.02884156365 121.12248430274194 486.67979202418064 1103.581627035938 1976.6131946295804 3110.0933968934246 4508.157730900005 6174.040711002205 8109.708720456888 10315.85105148852 12791.725299763193 15535.060698408874 18542.08405653725 21807.56593586999 25324.881782535398 29086.089186714456 33082.01124846444 37302.32613516142 41735.65777868332 46369.66490321966 51191.12905011011 56186.04024352275 61339.67942641918 66636.69770367321 72061.19236987403 77596.77944134141 83226.66285157432 88933.70043427976 94700.46675119732 100509.31299923977 106342.42394308234 112181.87247042744 118009.67148268464 123807.82351911825 129558.36819294037 135243.4277697301 140845.250760269 146346.25397883556 151729.06303244468 156976.55130554034 162071.8777472717 166998.52355468893 171740.32779494036 176281.5220876461 180606.76457059148 184701.173007001 188550.35742423282 192140.4521169701 195458.14731061162 198490.72074238845 119.266443879027 484.68995453923213 1104.5148815656778 1986.9193411918443 3138.2583543413134 4562.979794252435 6264.210096647197 8243.738724686245 10501.773463315812 13036.91357378912 15846.194668536471 18925.126779892937 22267.74868343381 25866.70215468252 29713.32046728474 33797.72006216947 38108.892021886146 42634.794725568376 47362.44564747777 52278.010357883526 57366.88852488586 62613.79676028052 68002.84803512847 73517.62755235167 79141.26507679185 84856.50378657079 90645.76595426514 96491.21534687556 102374.81666629363 108278.3921629449 114183.67560615444 120072.36376662101 125926.16570109969 131726.8497173697 137456.28856167773 143096.5027651434 148629.70228320843 154038.32664445127 159305.083810516 164412.987615836 169345.39429842433 174086.0380063839 178619.065338648 182929.06917413112 187001.12185776842 190820.80774227547 194374.25524710404 197648.16892125644 200629.86080358946 120.66362850245409 488.91551511451576 1118.6849228175145 2018.471639841947 3194.8789436596053 4653.057322564591 6396.199599239879 8425.597320113768 10740.856078618017 13339.935558198877 16219.16535118787 19373.30951627146 22795.657777294644 26478.117340836183 30411.302277154824 34584.62872421374 38986.412387894205 43603.963011340355 48423.67658940041 53431.12510997359 58611.14272290994 63947.908491757145 69425.02553393075 75025.59641830639 80732.29495452679 86527.43465381513 92393.0336849192 98310.87680673013 104262.57420251968 110229.61754244348 116193.43338904806 122135.43427858369 128037.0673244189 133879.8609635331 139645.46963342908 145315.7167634391 150872.63608614972 156298.51144831147 161575.91542674619 166687.7466064525 171617.26590340192 176348.13192062956 180864.43546762498 185150.7332690311 189192.08120520285 192974.06683326504 196482.84172956648 199705.153534078 202628.37740011336 121.99510375601031 499.6922772515095 1144.3776490048358 2066.784437992203 3274.5016857176215 4772.257514812409 6562.792216325361 8647.01325809422 11023.941844232831 13690.807704207315 16643.184580087673 19875.08848629022 23379.061929418367 27146.272235729604 31166.6164665843 35428.8213454739 39920.54057062652 44628.45121029912 49538.346981191055 54635.22781105435 59903.3859016722 65326.48796939302 70887.65370910914 76569.53058257376 82354.3648845025 88224.06938934397 94160.28765304932 100144.4551699371 106157.85754792139 112181.68589107443 118197.08958831987 124185.22687755148 130127.31291463008 136004.6659780126 141798.7517490998 147491.22594520802 153063.97519538717 158499.1566813724 163779.23635476615 168887.02614315652 173805.72004698307 178518.92947163415 183010.71751843955 187265.63283391026 191268.74282938286 195005.6662846597 198462.60592442067 201626.380411068 204484.4561390496 126.43224679742085 513.9842085508698 1178.3868848533677 2129.086049397123 3373.013055420842 4915.01857080581 6757.5268850134735 8900.730480266073 11342.911946441247 14080.584641412435 17108.568876863777 20420.10337436886 24006.9699976182 27859.60247327558 31967.188569415874 36317.77401032084 40898.36368540414 45695.018540587655 50692.948695980114 55876.602783276605 61229.75343740841 66735.57881113552 72376.7402445288 78135.45600264598 83993.57152429 89932.62609042939 95933.91632769501 101978.55644570325 108047.53560792476 114121.77259320694 120182.16810070138 126209.6543718655 132185.2428258863 138090.06979014966 143905.4402855691 149612.8702064047 155194.1269030452 160631.26850913052 165906.6818820256 171003.1196610239 175903.7362424843 180592.12289171026 185052.34210937304 189268.96152150852 193227.0870309886 196912.3957088008 200311.16836007423 203410.32178741146 206197.44101111902 130.01957927039984 532.7914852051257 1219.9167939453553 2202.0777373518554 3486.3976578917586 5076.793972935189 6974.8939268993545 9180.28283678476 11690.526211114038 14501.321154935546 17606.68381070991 20999.080186587773 24669.533981861452 28607.742059016815 32802.18816584573 37240.248670765766 41908.29347874301 46791.78327160186 51875.362663388434 57142.949014954414 62577.81691287435 68162.67866787639 73879.76091052424 79710.87729735236 85637.49755880528 91640.8132381841 97701.80011698604 103801.27744014321 109919.9645454751 116038.53478000626 122137.66682491383 128198.0937155669 134200.6499924145 140126.3167482715 145956.26502465832 151671.8974725792 157254.8886244889 162687.22391463065 167951.23744652417 173029.64874130033 177905.59864059262 182562.6843208517 186984.99374326484 191157.13939410492 195064.29167104376 198692.21191010388 202027.28504591915 205056.55216495568 207767.74308482526 136.24826000728254 553.4095266799177 1266.453000770413 2283.9428720090523 3611.7273940250975 5253.391782511728 7209.948822326293 9480.064942748442 12060.433687032995 14945.955778855609 18129.844874347622 21603.765280374206 25357.97280548369 29381.43446650307 33661.93848187944 38186.201525415454 42939.9716165506 47908.12524734544 53074.75945610736 58423.27957552943 63936.482709725904 69596.63707239309 75385.55719995608 81284.67540702167 87275.10966060891 93337.7281078242 99453.2102828631 105602.10556517137 111764.88871470482 117922