<?xml version="1.0" encoding="utf-8"?>
<VTKFile type="UnstructuredGrid" version="1.0" byte_order="LittleEndian" header_type="UInt64">
  <UnstructuredGrid>
    <Piece NumberOfPoints="289" NumberOfCells="512">
      <Points>
        <DataArray type="Float64" Name="Points" NumberOfComponents="3" format="ascii">
 0.0 0.0 2.564729590495932 50.0 0.0 2.5647295994257364 100.0 0.0 2.564729681252048 125.0 43.30127018922193 5591.5817905788135 150.0 86.60254037844386 2.56472536175808 100.0 86.60254037844386 2.5647253706878703 50.0 86.60254037844386 2.564725452514166 25.0 43.30127018922193 5591.581785795176 75.0 43.30127018922193 6319.561388220677 6.249999999976338 0.0 -2.5647295882819203 12.49999999994406 0.0 2.5647295857573873 18.74999999992205 0.0 -2.5647295845982616 24.99999999991182 0.0 2.5647295854146557 31.2499999999016 0.0 -2.56472958614023 37.49999999993162 0.0 2.564729589728913 43.74999999996581 0.0 -2.5647295929372538 56.24999999993549 0.0 -2.564729605559706 62.49999999987098 0.0 2.5647296148156284 68.74999999980648 0.0 -2.5647296237375024 74.99999999974196 0.0 2.5647296358835012 81.2499999996774 0.0 -2.564729647771492 87.49999999977383 0.0 2.5647296619993174 93.74999999988691 0.0 -2.5647296734873235 103.1249999999957 5.412658773645339 776.790745215776 106.2499999999891 10.82531754728667 2069.0171347907212 109.3749999999826 16.23797632092813 3452.9024120775557 112.4999999999764 21.65063509457012 4622.3438656988055 115.6249999999825 27.06329386823346 5468.152262088623 118.7499999999884 32.47595264189628 5916.132929712047 121.8749999999942 37.88861141555911 5942.677081484053 128.1249999999965 48.71392896286869 4930.273022954481 131.2499999999883 54.12658773650712 4046.3470201648174 134.3749999999824 59.53924651014971 3057.9817212062158 137.4999999999766 64.9519052837923 2080.1026982832122 140.6249999999833 70.36456405745676 1219.4580664827492 143.7499999999889 75.77722283111912 562.8153790362011 146.8749999999944 81.18988160478149 156.88191886215913 143.7499999999653 86.60254037844386 -2.564725359544068 137.4999999999306 86.60254037844386 2.5647253570195345 131.249999999896 86.60254037844386 -2.564725355860407 124.9999999999446 86.60254037844386 2.564725356676798 118.7500000000875 86.60254037844386 -2.56472535740237 112.5000000000694 86.60254037844386 2.564725360991052 106.2500000000347 86.60254037844386 -2.5647253641993903 93.7500000000399 86.60254037844386 -2.5647253768218388 87.50000000007981 86.60254037844386 2.5647253860777584 81.25000000011974 86.60254037844386 -2.5647253949996287 75.00000000015966 86.60254037844386 2.5647254071456262 68.75000000019955 86.60254037844386 -2.564725419033616 62.50000000009787 86.60254037844386 2.564725433261439 56.25000000004894 86.60254037844386 -2.564725444749442 46.8750000000134 81.18988160481433 776.7907404908204 43.75000000002079 75.77722283117438 2069.0171285646147 40.62500000003299 70.36456405754278 3452.902405857913 37.50000000004398 64.95190528390908 4622.34385894206 34.37500000004297 59.53924651025457 5468.152255710092 31.25000000002425 54.12658773656942 5916.132923602963 28.12500000001213 48.71392896289568 5942.6770758303865 21.87500000000886 37.88861141558454 4930.273018793769 18.75000000002253 32.47595264195548 4046.3470165298927 15.62500000003298 27.06329386832083 3057.9817189271885 12.5000000000393 21.65063509467903 2080.102697795527 9.375000000033285 16.23797632101587 1219.4580659233266 6.250000000022538 10.82531754734452 562.815376840393 3.125000000011269 5.412658773672263 156.88191876820412 53.12499999998593 5.412658773628372 314.90886051514093 56.24999999996955 10.82531754725274 1128.2729447982456 59.37499999995325 16.23797632087724 2233.64318555134 62.49999999993723 21.65063509450225 3437.3813196557194 65.62499999994535 27.06329386816904 4576.8412330330275 68.74999999996356 32.47595264185334 5503.748822946131 71.87499999998178 37.88861141553764 6108.70789884123 81.24999999993548 43.30127018922193 6340.397906416422 87.49999999987098 43.30127018922193 6398.495186589262 93.74999999980648 43.30127018922193 6475.152096596078 99.99999999974196 43.30127018922193 6535.013260469743 106.2499999996774 43.30127018922193 6530.745354522083 112.4999999997738 43.30127018922193 6402.479587350707 118.7499999998869 43.30127018922193 6097.659354191544 78.12499999999655 48.71392896286869 6108.707899108073 81.24999999998828 54.12658773650712 5503.748823506729 84.37499999998242 59.53924651014971 4576.841233584602 87.49999999997657 64.9519052837923 3437.3813197516906 90.62499999998332 70.36456405745676 2233.643185986654 93.74999999998889 75.77722283111912 1128.272946459212 96.87499999999444 81.18988160478149 314.90886048295096 68.75000000003229 43.30127018922193 6340.397905845033 62.50000000006457 43.30127018922193 6398.495185353445 56.25000000009685 43.30127018922193 6475.152094711261 50.00000000012915 43.30127018922193 6535.013257803821 43.75000000016139 43.30127018922193 6530.745351045429 37.50000000011314 43.30127018922193 6402.47958338281 31.25000000005657 43.30127018922193 6097.659349491772 9.374999999994468 5.412658773666777 132.9329710746515 12.50000000001231 10.82531754733305 578.4454537886593 15.62500000002971 16.23797632099854 1335.510402925231 18.750000000043 21.65063509465693 2324.2458909577776 21.87500000004851 27.06329386830186 3426.0028709629273 25.00000000005168 32.47595264194271 4508.184625109785 28.12500000005202 37.88861141557867 5439.561553011803 15.62499999997013 5.41265877366129 165.85945453902207 18.74999999999562 10.82531754732157 697.0995190472311 21.87500000002074 16.23797632098122 1558.8293733129135 25.00000000004238 21.65063509463484 2642.2345600129884 28.12500000006081 27.06329386828288 3810.730105390227 31.25000000007866 32.47595264192995 4918.4718719854345 34.3750000000941 37.88861141557282 5821.8071207497005 21.87499999995373 5.412658773655803 209.28343184607158 24.99999999998455 10.8253175473101 833.634516462408 28.12500000001507 16.23797632096388 1784.839588120032 31.25000000004274 21.65063509461274 2932.701292630199 34.37500000007175 27.06329386826391 4125.401868848546 37.50000000010198 32.47595264191718 5212.600152774834 40.62500000013019 37.88861141556696 6053.561449736617 28.12499999993759 5.412658773650318 248.9409178759639 31.2499999999622 10.82531754729863 947.0238141119534 34.37499999998659 16.23797632094656 1965.6610504288997 37.50000000000875 21.65063509459064 3151.748252953332 40.62500000003682 27.06329386824493 4343.86529598904 43.75000000006786 32.47595264190441 5387.544173645842 46.87500000009731 37.88861141556108 6152.961016607662 34.37499999992144 5.412658773644832 274.9647493995331 37.49999999993984 10.82531754728716 1031.123096572042 40.62499999995807 16.23797632092923 2094.190585756808 43.74999999997473 21.65063509456854 3293.4423453735126 46.87500000000184 27.06329386822596 4468.906663582167 50.00000000003372 32.47595264189164 5469.167332342573 53.12500000006438 37.88861141555522 6167.443738802427 40.6249999999405 5.412658773639345 298.8148059483362 43.74999999994765 10.82531754727568 1082.5223159733491 46.87499999995475 16.2379763209119 2169.1642654468974 49.99999999996085 21.65063509454644 3374.7881773874224 53.12499999998197 27.06329386820699 4529.426767954327 56.25000000000963 32.47595264187888 5492.039527162913 59.37500000003651 37.88861141554937 6142.216587340285 46.87499999996322 5.412658773633858 305.4941315616144 49.9999999999586 10.82531754726421 1114.9449691206414 53.124999999954 16.23797632089457 2211.438476186946 56.24999999994904 21.65063509452435 3413.946932437018 59.37499999996365 27.06329386818802 4555.683827950678 62.49999999998661 32.4759526418661 5493.000825721972 65.62500000000915 37.88861141554349 6114.018509549003 59.37499999992265 5.412658773630493 315.90906043320524 62.4999999999075 10.82531754725698 1139.031154066685 65.6249999998924 16.2379763208836 2253.1051384460907 68.74999999987762 21.65063509451074 3467.8818656855806 71.87499999988546 27.06329386817709 4615.5233294898635 74.99999999990217 32.4759526418587 5547.447475110397 78.12499999991883 37.88861141554032 6144.495994980566 65.62499999985934 5.412658773632614 320.34975980805314 68.7499999998454 10.82531754726122 1150.42735276228 71.87499999983157 16.23797632088996 2280.7136323590607 74.99999999981802 21.65063509451922 3527.152704985446 78.12499999982562 27.06329386818514 4695.586463729192 81.24999999984074 32.47595264186408 5635.146927410118 84.37499999985586 37.88861141554301 6225.798524693594 71.8749999997961 5.412658773634735 320.44458221503953 74.99999999978337 10.82531754726546 1173.757735366421 78.12499999977075 16.23797632089632 2342.180949690354 81.24999999975842 21.6506350945277 3627.9857443849896 84.37499999976578 27.0632938681932 4829.456106508008 87.49999999977933 32.47595264186945 5772.097418018977 90.62499999979292 37.88861141554569 6342.077082696919 78.12499999973278 5.412658773636856 336.6855608573421 81.2499999997213 10.82531754726971 1211.0981916014453 84.37499999970991 16.23797632090268 2449.1456289479415 87.49999999969879 21.65063509453619 3789.2847541659535 90.62499999970589 27.06329386820125 5018.155662723068 93.74999999971791 32.47595264187481 5949.054713560621 96.87499999972994 37.88861141554837 6469.656248232524 84.3749999996695 5.412658773638977 342.46955411318123 87.49999999965921 10.82531754727395 1294.410727694061 90.62499999964902 16.23797632090904 2620.5041515551234 93.74999999963909 21.65063509454467 4020.9108214695216 96.87499999964598 27.0632938682093 5246.650335962878 99.99999999965644 32.47595264188017 6129.874874793305 103.1249999996669 37.88861141555106 6566.980963158167 90.62499999976713 5.412658773641096 378.42949425895915 93.74999999975809 10.82531754727819 1456.2219253234573 96.87499999974912 16.23797632091541 2861.3350741953036 99.99999999974044 21.65063509455316 4294.581930270672 103.1249999997471 27.06329386821735 5477.580749339961 106.249999999756 32.47595264188553 6257.953844895416 109.3749999997649 37.88861141555375 6567.3610012965355 96.87499999988142 5.412658773643217 456.94083331422786 99.9999
[...]
      <PointData>
        <DataArray type="Float64" Name="w" NumberOfComponents="1" format="ascii">
 2.564729590495932 2.5647295994257364 2.564729681252048 5591.5817905788135 2.56472536175808 2.5647253706878703 2.564725452514166 5591.581785795176 6319.561388220677 -2.5647295882819203 2.5647295857573873 -2.5647295845982616 2.5647295854146557 -2.56472958614023 2.564729589728913 -2.5647295929372538 -2.564729605559706 2.5647296148156284 -2.5647296237375024 2.5647296358835012 -2.564729647771492 2.5647296619993174 -2.5647296734873235 776.790745215776 2069.0171347907212 3452.9024120775557 4622.3438656988055 5468.152262088623 5916.132929712047 5942.677081484053 4930.273022954481 4046.3470201648174 3057.9817212062158 2080.1026982832122 1219.4580664827492 562.8153790362011 156.88191886215913 -2.564725359544068 2.5647253570195345 -2.564725355860407 2.564725356676798 -2.56472535740237 2.564725360991052 -2.5647253641993903 -2.5647253768218388 2.5647253860777584 -2.5647253949996287 2.5647254071456262 -2.564725419033616 2.564725433261439 -2.564725444749442 776.7907404908204 2069.0171285646147 3452.902405857913 4622.34385894206 5468.152255710092 5916.132923602963 5942.6770758303865 4930.273018793769 4046.3470165298927 3057.9817189271885 2080.102697795527 1219.4580659233266 562.815376840393 156.88191876820412 314.90886051514093 1128.2729447982456 2233.64318555134 3437.3813196557194 4576.8412330330275 5503.748822946131 6108.70789884123 6340.397906416422 6398.495186589262 6475.152096596078 6535.013260469743 6530.745354522083 6402.479587350707 6097.659354191544 6108.707899108073 5503.748823506729 4576.841233584602 3437.3813197516906 2233.643185986654 1128.272946459212 314.90886048295096 6340.397905845033 6398.495185353445 6475.152094711261 6535.013257803821 6530.745351045429 6402.47958338281 6097.659349491772 132.9329710746515 578.4454537886593 1335.510402925231 2324.2458909577776 3426.0028709629273 4508.184625109785 5439.561553011803 165.85945453902207 697.0995190472311 1558.8293733129135 2642.2345600129884 3810.730105390227 4918.4718719854345 5821.8071207497005 209.28343184607158 833.634516462408 1784.839588120032 2932.701292630199 4125.401868848546 5212.600152774834 6053.561449736617 248.9409178759639 947.0238141119534 1965.6610504288997 3151.748252953332 4343.86529598904 5387.544173645842 6152.961016607662 274.9647493995331 1031.123096572042 2094.190585756808 3293.4423453735126 4468.906663582167 5469.167332342573 6167.443738802427 298.8148059483362 1082.5223159733491 2169.1642654468974 3374.7881773874224 4529.426767954327 5492.039527162913 6142.216587340285 305.4941315616144 1114.9449691206414 2211.438476186946 3413.946932437018 4555.683827950678 5493.000825721972 6114.018509549003 315.90906043320524 1139.031154066685 2253.1051384460907 3467.8818656855806 4615.5233294898635 5547.447475110397 6144.495994980566 320.34975980805314 1150.42735276228 2280.7136323590607 3527.152704985446 4695.586463729192 5635.146927410118 6225.798524693594 320.44458221503953 1173.757735366421 2342.180949690354 3627.9857443849896 4829.456106508008 5772.097418018977 6342.077082696919 336.6855608573421 1211.0981916014453 2449.1456289479415 3789.2847541659535 5018.155662723068 5949.054713560621 6469.656248232524 342.46955411318123 1294.410727694061 2620.5041515551234 4020.9108214695216 5246.650335962878 6129.874874793305 6566.980963158167 378.42949425895915 1456.2219253234573 2861.3350741953036 4294.581930270672 5477.580749339961 6257.953844895416 6567.3610012965355 456.94083331422786 1693.5020461911672 3184.7249774287907 4563.675227210644 5611.02166482233 6224.750839329755 6380.43859896456 6114.018510336228 5493.000826494355 4555.683828848338 3413.946933670373 2211.4384766941857 1114.9449680173511 305.4941318095007 6142.216588692485 5492.039528652395 4529.4267691494415 3374.788177900198 2169.164266173917 1082.5223177011792 298.8148058735681 6167.443740751978 5469.167334030469 4468.906665107366 3293.4423469409453 2094.1905864385876 1031.1230955013607 274.96474954013433 6152.961019126591 5387.544175985807 4343.865297804717 3151.748253775598 1965.66105102731 947.0238155651858 248.9409177312158 6053.561452933541 5212.600155174902 4125.401870763438 2932.701294440445 1784.839588468171 833.634514510523 209.2834315096959 5821.80712425319 4918.471875231094 3810.7301076483295 2642.23456041361 1558.8293729830039 697.0995196803449 165.85945401691848 5439.561556608786 4508.184628187555 3426.002873969108 2324.245892281193 1335.5104012291908 578.4454513697143 132.93297196270552 6144.495994626413 5547.4474749269675 4615.523329689568 3467.8818664365904 2253.105138713217 1139.0311528501197 315.9090605591419 6225.798523744342 5635.1469269536765 4695.586463405212 3527.1527045443536 2280.713632559531 1150.4273542599135 320.34975978288713 6342.0770810220965 5772.097416516856 4829.456105662251 3627.985744463884 2342.180949599725 1173.757734020736 320.44458234944915 6469.656245650142 5949.054711500144 5018.155661117369 3789.2847526111523 2449.145628584906 1211.0981930441862 336.68556073671255 6566.980959736427 6129.874871422654 5246.650333129176 4020.9108199490956 2620.50415049329 1294.4107261172733 342.46955419701936 6567.360996853038 6257.953840425681 5477.58074515741 4294.581926639932 2861.335071785849 1456.2219257845984 378.42949431332954 6380.438593791378 6224.750834000286 5611.021659222198 4563.675221988276 3184.724972923516 1693.5020423122523 456.94083336718484
</DataArray>
        <DataArray type="Float64" Name="φ₁" NumberOfComponents="1" format="ascii">
 3.4993182774151657 3.4993182807505154 3.499318313031147 -92.92432388739785 -3.4993180836026 -3.4993180869379548 -3.4993181192185796 92.92432405571647 1.0846926056321425e-7 -3.4993182765326525 3.4993182761705968 -3.4993182764937614 3.499318275660348 -3.499318276074626 3.499318276452282 -3.4993182783276255 -3.4993182837758092 3.4993182871485216 -3.499318291353571 3.499318296360475 -3.4993183019949288 3.4993183067503497 -3.4993183112143655 104.548815319307 46.67295072477308 10.730717047969025 -10.869116659823472 -53.26629135266538 -75.42306365446302 -84.5052117599041 -83.19990708645454 -66.94211932777885 -49.05729240849755 -24.239026194948288 -2.281711967341983 7.797090797503748 4.758489187800048 3.499318082720087 -3.499318082358032 3.4993180826811967 -3.4993180818477834 3.4993180822620626 -3.4993180826397197 3.4993180845150627 3.4993180899632486 -3.49931809333596 3.499318097541008 -3.499318102547911 3.4993181081823637 -3.4993181129377837 3.4993181174018 -104.54881563167505 -46.67294926602966 -10.730717427744942 10.869116721806138 53.26629189180432 75.42306351994249 84.50521165636876 83.19990747671518 66.94211914766261 49.05729142403686 24.239026953868553 2.2817142272234356 -7.797091585163967 -4.758492745057692 -0.7968925138654271 -0.2626233697242009 4.6119570666320335 3.105438503989679 3.1826365983043186 6.073079386569932 0.040068253657265365 3.7474702606749477 12.568708406698686 15.804638233320468 2.4306719859455566 -10.160696272653714 -28.36319665611698 -68.5450078983625 -0.040068134808147964 -6.073079413550885 -3.182636742810733 -3.105438411813502 -4.611956231448911 0.2626233220141942 0.7968898648260894 -3.7474702891684752 -12.568708234472654 -15.804638012157799 -2.4306721333103707 10.160696629960242 28.363196714858056 68.54500786416371 0.07740149632074089 14.642153641466253 33.198195184227714 49.83024980943043 66.24016390327758 77.21728609867692 73.32416202846416 6.972201792397319 21.538183832238893 37.82586799788995 51.681038372711406 55.01301671385315 56.793885096361976 49.20876273451957 6.7212868991425125 22.531368445802382 32.497118601598096 42.17342015693584 44.74628053801329 35.483290038047514 28.328863589913933 2.677183927355458 14.864311616488584 25.63728569709097 27.384401950681443 27.972631003413483 19.71120675922858 3.8044287923344364 5.37517202277613 11.130633113048402 16.27776526130093 17.475590690139768 12.152764669225173 10.1421828508591 -2.035323155205333 0.5541494483092446 5.510921587498924 8.051617516151696 10.796471723130898 5.631824562420749 -1.5391059977732708 -2.099462779788237 2.0894571118274374 5.198844824472509 4.172647727808822 2.6345887713862846 5.459778545735856 -0.7862188722196355 -4.784731037701728 2.338661824946483 2.400751743029386 2.315525480720037 8.118521014188376 7.1072755313139115 11.160220879978217 11.299571372019047 -1.9399247606868621 2.1024505287526534 5.368132471031502 13.562203886049442 18.296391617222408 14.57491885194633 18.825971775242834 2.6697260874757114 6.198062466063306 14.183362562188469 17.05255928348908 29.584920990463573 26.587940672055264 16.384382186085027 0.2955564129726594 4.5572571680313585 24.717906485124395 32.12932519486831 29.00365172999643 35.728891848159975 19.25651972138294 3.9979621136982506 21.922956437607073 28.291117862900077 49.97576011796299 37.302292549561656 21.447462267718226 16.148954638154184 2.497882004507139 37.578630662585276 41.086933069723926 37.40918930255737 44.1287446501819 10.151526021304699 -14.982362663995758 21.578981496042267 40.06501131687425 76.8809915023749 31.969187117874466 -0.4906245543280298 -19.05804856274557 -52.06450546011368 4.784731168865363 0.7862189973257996 -5.45977833541157 -2.6345887190772364 -4.172648527555011 -5.198844796353285 -2.089454436146904 2.0994627576074443 1.5391061417349803 -5.631824703844569 -10.796471781548531 -8.051616615109937 -5.510921597106165 -0.5541521620256302 2.03532331527173 -10.14218295790432 -12.152764304528663 -17.475590592880796 -16.27776620329912 -11.130633103237129 -5.375169302455094 -3.804428565115802 -19.71120656554113 -27.97263137068108 -27.38440192814299 -25.63728479779675 -14.864311698791777 -2.6771867071150908 -28.32886377825528 -35.483289972553855 -44.74628015244832 -42.17342017282346 -32.497119608817755 -22.531368591476237 -6.7212841206889 -49.208762464505895 -56.79388505024687 -55.01301696360841 -51.68103854820907 -37.8258670489246 -21.53818385264927 -6.972204719173399 -73.32416221119732 -77.21728608762723 -66.2401632490912 -49.83024981946432 -33.19819680714917 -14.642153204865284 -0.07739807631234846 -11.299571364674293 -11.16022067322248 -7.1072752198972315 -8.118521064266647 -2.3155263057288438 -2.400751643488905 -2.338659161374031 -18.82597147474567 -14.574918902206546 -18.296391837734046 -13.562203706040119 -5.368131582927961 -2.1024506172202972 1.9399220763272853 -16.38438236439245 -26.58794045236631 -29.584920454067298 -17.05255936778872 -14.183363435568488 -6.198062340980148 -2.6697233883569753 -19.256519321490586 -35.72889155198272 -29.003652169010575 -32.12932497745634 -24.717905352940477 -4.557257314855547 -0.2955591126034364 -16.148954458489104 -21.447462498747782 -37.3022918018122 -49.975759741153425 -28.29111892580466 -21.922956309419913 -3.9979593608801247 14.982362494886392 -10.151525418736478 -44.1287445028266 -37.40918964547956 -41.08693171393635 -37.578630201844135 -2.497884882494078 52.06450588700098 19.058048611518775 0.49062429293690624 -31.969186108259663 -76.88099151575825 -40.065011613711626 -21.578978702069367
</DataArray>
        <DataArray type="Float64" Name="φ₂" NumberOfComponents="1" format="ascii">
 3.724462265037138 3.7244622562704737 3.7244623296646115 -30.96684960522003 -3.7244642649201323 -3.7244642561534853 -3.724464329547634 30.96684983357266 -9.418325536135888e-8 -3.724462258679146 3.724462260922737 -3.7244622502196143 3.724462254394149 -3.724462241298212 3.724462251792989 -3.7244622405659835 -3.724462247807069 3.72446226754189 -3.724462263210695 3.724462288328427 -3.724462287981468 3.724462315916851 -3.7244623097720906 159.73800215758396 228.8491282446151 212.1872972971957 202.3113072142662 157.08956918633302 83.69605113986789 28.346440534755722 -92.21722427291778 -126.97663870414239 -149.42904284503717 -156.69079022724515 -137.88233138750167 -109.88452810423267 -70.36131319027602 3.7244642585621404 -3.7244642608057332 3.7244642501026113 -3.724464254277148 3.724464241181214 -3.724464251675994 3.7244642404489903 3.7244642476900824 -3.724464267424906 3.7244642630937133 -3.7244642882114474 3.72446428786449 -3.724464315799874 3.7244643096551133 -159.73800150570614 -228.84912851101546 -212.18729736017787 -202.31130749606243 -157.0895690769939 -83.69605134523307 -28.346440914622082 92.21722402115363 126.97663797268585 149.4290432595358 156.69079045617227 137.88233018438024 109.88452778681135 70.36131306029795 112.70472373128968 184.25752564728413 221.73700120423686 216.67643783826742 193.43334051502387 148.21965947474385 70.40508392673807 -12.727360858390437 -9.93529310136744 -22.611757457838156 -39.53621369332497 -41.42405753118894 -49.4379972804736 -61.606194275832266 -70.40508384207635 -148.2196594143872 -193.43334069847583 -216.67643777873928 -221.7370011897029 -184.25752580074607 -112.70472372485922 12.72736089820535 9.935293260231978 22.61175719187334 39.53621359959467 41.4240577465979 49.4379968539713 61.606193974258154 41.498141422475534 106.44063140979999 149.39071008229874 171.68030162764126 176.75934847080833 151.7572717989418 112.17326758699447 63.259024743152835 116.62929522557198 163.10796437399512 181.75031290810773 179.62186021722331 159.36533490536087 108.08487462517817 75.87904216065436 139.239927179297 180.17956428592774 201.70276178428165 190.91625714380066 161.6010870800355 116.35930006471463 89.52609382249862 156.39320308649226 194.49966332209232 207.82993849486652 199.26318598391137 157.08231272374636 103.10950159235641 100.08730783137449 168.52844055452394 208.80287378146429 214.2663410003701 197.66972408309337 161.4984173909437 93.0483497128384 107.55425181717997 176.18102423643893 212.84387335096733 221.92951693898144 194.0531724483375 151.47499054399879 94.36108626115045 111.12861888103255 183.60455548387128 215.1191626705879 219.78274382109555 199.93862614156757 143.08466055573962 81.81895471119526 115.3467673350032 184.24207853660846 220.216984496121 226.06124544959957 186.5011245472352 139.76870890070316 75.0085715332286 115.21351336717511 191.09225945125638 218.2673772796873 223.2040326839857 195.92054758523912 127.63051799370459 64.00615491165148 115.35200334427257 191.6882503077436 234.55298222117963 217.9140386586317 191.3683424369792 133.7913641398922 47.76119104978897 122.05987663339994 192.1168261351152 236.07047780849192 232.9045161906216 176.31041397095288 122.31631540294377 48.2459965593539 125.98411793579736 222.6711821796452 233.37432905293144 232.36710978394632 184.08038485664994 101.5834377745902 32.84267716779261 126.68316311047414 225.42528480500675 253.65102351902297 210.78212300820658 168.79930636052558 100.2241274133234 14.183805673794982 189.26654528005983 229.53322088058013 254.87880271181083 218.55723585950767 145.5689651320368 86.73311227940988 15.808936782369365 -81.81895492564743 -143.08466044767013 -199.93862612765847 -219.7827440690917 -215.11916261881706 -183.6045554626477 -111.12861899261405 -94.36108627160075 -151.4749908317252 -194.05317233797143 -221.92951692353014 -212.84387364137933 -176.18102421790684 -107.55425178348754 -93.0483495423396 -161.49841743137407 -197.66972447302103 -214.26634089891547 -208.8028737160685 -168.5284408372635 -100.08730782639746 -103.10950198134596 -157.08231255102942 -199.26318599096456 -207.82993899690246 -194.49966327767643 -156.39320290396483 -89.52609392747738 -116.35930020394487 -161.6010876266488 -190.9162569424088 -201.70276170148313 -180.17956489638058 -139.23992717167724 -75.87904183117385 -108.08487436113838 -159.36533499663378 -179.62186101784556 -181.7503128341162 -163.10796405832224 -116.62929556713061 -63.2590247448869 -112.17326813513621 -151.75727131846264 -176.75934853180908 -171.6803029618472 -149.39071009313307 -106.44063054174462 -41.498141531245935 -75.00857141209369 -139.76870905905818 -186.50112450015695 -226.06124539905034 -220.21698462969204 -184.24207851184266 -115.34676733661563 -64.00615509875836 -127.6305179807372 -195.9205474580976 -223.20403275558718 -218.26737726210294 -191.09225943770744 -115.21351341877812 -47.76119109186504 -133.79136393504334 -191.36834253338924 -217.91403866337046 -234.55298214118886 -191.6882503523433 -115.35200333757145 -48.24599634271178 -122.3163155901232 -176.31041401787212 -232.90451599711855 -236.0704777253049 -192.1168261533178 -122.0598766296799 -32.84267747352733 -101.58343789787821 -184.08038458139552 -232.36710983247065 -233.37432909002808 -222.67118207593663 -125.98411792767573 -14.183805861230201 -100.22412722935566 -168.7993065934748 -210.7821230791609 -253.6510232816256 -225.42528444081248 -126.6831631655661 -15.808936567590134 -86.7331125781305 -145.56896533158624 -218.55723564426077 -254.8788028991024 -229.5332208864559 -189.26654512427285
</DataArray>
      </PointData>
    </Piece>
  </UnstructuredGrid>
</VTKFile>
