<?xml version="1.0" encoding="utf-8"?>
<VTKFile type="UnstructuredGrid" version="1.0" byte_order="LittleEndian" header_type="UInt64">
  <UnstructuredGrid>
    <Piece NumberOfPoints="340" NumberOfCells="614">
      <Points>
        <DataArray type="Float64" Name="Points" NumberOfComponents="3" format="ascii">
 0.0 0.0 0.9999989541198229 1.0 0.0 1.9999989254400772 1.0 1.0 2.999999790839937 0.0 1.0 1.9999998002911739 0.06249999999987327 0.0 1.0625015282242196 0.1249999999997738 0.0 1.1249914345203147 0.1874999999995943 0.0 1.1875063927548215 0.2499999999994121 0.0 1.2499986972598154 0.3124999999992298 0.0 1.3125003628601548 0.3749999999990476 0.0 1.3749995035623261 0.4374999999988654 0.0 1.4375002743008145 0.499999999998694 0.0 1.5000005991723144 0.5624999999988478 0.0 1.5624999435571705 0.6249999999990125 0.0 1.625000001381265 0.687499999999177 0.0 1.6874999978334024 0.7499999999993416 0.0 1.7500000004016276 0.8124999999995062 0.0 1.812500001753525 0.8749999999996708 0.0 1.8749999885432842 0.9374999999998354 0.0 1.9375000547498094 1.0 0.06249999999987327 2.0625016223817694 1.0 0.1249999999997738 2.124990892483531 1.0 0.1874999999995943 2.187506804537049 1.0 0.2499999999994121 2.2499985998671934 1.0 0.3124999999992298 2.312500622291955 1.0 0.3749999999990476 2.3749994098089404 1.0 0.4374999999988654 2.437500111442178 1.0 0.499999999998694 2.5000003423769668 1.0 0.5624999999988478 2.5624999734024967 1.0 0.6249999999990125 2.6250000006542 1.0 0.687499999999177 2.687499999025967 1.0 0.7499999999993416 2.750000000159551 1.0 0.8124999999995062 2.8125000001431757 1.0 0.8749999999996708 2.8749999975364795 1.0 0.9374999999998354 2.9375000096056683 0.9374999999997397 1.0 2.937500010498544 0.8749999999995011 1.0 2.874999996359254 0.812499999999913 1.0 2.8124999991218607 0.7500000000003465 1.0 2.7499999988646846 0.68750000000078 1.0 2.6875000005954672 0.6250000000012137 1.0 2.625000000293365 0.5625000000016472 1.0 2.5625000000416414 0.5000000000020591 1.0 2.499999999916547 0.4375000000018207 1.0 2.4375000002468545 0.3750000000015605 1.0 2.375000000094775 0.3125000000013005 1.0 2.312500000018058 0.2500000000010404 1.0 2.2499999999884426 0.1875000000007803 1.0 2.187500000312414 0.1250000000005203 1.0 2.124999997992216 0.06250000000026013 1.0 2.0625000100784727 0.0 0.9374999999997397 1.9375002178242353 0.0 0.8749999999995011 1.8749987953217968 0.0 0.812499999999913 1.8125008977995498 0.0 0.7500000000003465 1.7499998160997425 0.0 0.68750000000078 1.6875000238241937 0.0 0.6250000000012137 1.6249999979895606 0.0 0.5625000000016472 1.5624999960049675 0.0 0.5000000000020591 1.4999999981056478 0.0 0.4375000000018207 1.4375000004715588 0.0 0.3750000000015605 1.375000000018373 0.0 0.3125000000013005 1.312499999998706 0.0 0.2500000000010404 1.2499999999684845 0.0 0.1875000000007803 1.1875000017831803 0.0 0.1250000000005203 1.1249999888246385 0.0 0.06250000000026013 1.0625000532169826 0.9540129138381733 0.9554132882096409 2.9094283570984842 0.9458186567110763 0.9058124993545486 2.8515595928720763 0.4995322282144962 0.3530373305116182 1.8508391789013552 0.4796947503143915 0.4195464397192155 1.8976382352914465 0.4289659112502381 0.3703934119341416 1.7980848715497948 0.5556674479558171 0.4148441769121896 1.9687490632511773 0.3484337243893381 0.9442980470307648 2.292662690461266 0.3036141656213424 0.8859997514210144 2.188435619503102 0.3618649364358981 0.8747345226774258 2.235497363905204 0.3103388921437942 0.8243985134027599 2.133344586555149 0.9440762383526892 0.6515971346203796 2.595628503193405 0.8856607826210046 0.6964312551994382 2.581022742383933 0.8659631982782574 0.6258567162217606 2.490834612108327 0.8237209852033596 0.6897560426901562 2.5122099034513727 0.6516135245785135 0.05600891000395106 1.707610331697473 0.6965136092750744 0.1144764140348112 1.8101032042541692 0.6276276694433734 0.131199128424304 1.757817779682459 0.6897285261946559 0.1764961704861385 1.8652656547854471 0.7970452961867076 0.9095182708817022 2.70604633478375 0.7778037121495709 0.9488702116560174 2.72657470660523 0.7534017041533525 0.8879179235209713 2.6405996497493387 0.720796028624462 0.9468843636240857 2.667557393358403 0.7057880650157399 0.8976450635297538 2.6025799069171485 0.9096764869447755 0.2037495689488837 2.112956093093396 0.9490896508465597 0.2233194699848563 2.1724224387212043 0.8872452127072535 0.2484741744118257 2.1355501697069434 0.9468833751835618 0.279204727330287 2.2262728904249327 0.8940427408084156 0.3036435854380718 2.1973215546287963 0.09032188033856055 0.7963071600105689 1.8858626601234456 0.05091504001761799 0.7767567985352825 1.8275185938777752 0.1127536496635177 0.7517545930121805 1.8636682859317326 0.0531470474591681 0.7209428958763805 1.774019673441403 0.1059519292397888 0.6968125601282935 1.8019471222970793 0.2036948030463718 0.09032381048480233 1.2935341611102242 0.2232495317285559 0.0509245270674497 1.27417976385607 0.2482783334612842 0.112805057784166 1.3609087262060902 0.2790587400044852 0.05314865591437173 1.3323703712246984 0.303310648609621 0.1061189497521519 1.4089549251862699 0.8959308066910907 0.9406118954430608 2.8364625501067957 0.8938301791839279 0.885816964962131 2.779047064226583 0.847070009992687 0.896703495670666 2.743144149186061 0.8330792439326432 0.9489007119093452 2.7818822454603094 0.06332451751218007 0.1588262463436671 1.2221118344096302 0.114400220834231 0.2072660733005935 1.3208799719163011 0.05673401492882871 0.221713374048182 1.2783725331940483 0.09633592837128266 0.09749106702155712 1.1932301749524057 0.136764157415852 0.1543083165663368 1.2904843884804524 0.1588352405436785 0.936685224452867 2.0954320267934308 0.20730842035607 0.8856524982144284 2.091985856215522 0.2217397618778197 0.9433014875379535 2.1649114279003165 0.09749106702156361 0.9036640716285367 2.0003911979273723 0.1543083165663411 0.8632358425841528 2.0166906156623017 0.8411778087676715 0.0633319012599721 1.9044796295893802 0.792763692789281 0.1144505356931593 1.9065494845164708 0.7783029322210929 0.05675205204536737 1.8349835667285106 0.9025089329785919 0.09633592837128269 1.9982350671686355 0.8456916834338974 0.1367641574158532 1.981833539193469 0.9311380405532663 0.8405328475129524 2.7715761417199616 0.8844550139331883 0.7927818750505282 2.676214796090576 0.9431621770921876 0.7781047011804797 2.721149362807121 0.8598851511635245 0.8405718457930426 2.6997663946130905 0.09885430803860264 0.8439183043661819 1.9421575169620824 0.05551474889910517 0.8697345943060519 1.9250700626553412 0.901145559188245 0.1560949386311557 2.0568141943833624 0.9444852830324362 0.1302661144921609 2.07433821852984 0.1560821394421001 0.09885474440653726 1.2545200146070783 0.1302654056936114 0.05551474889910278 1.185389321100075 0.04073947918922492 0.9075400460137077 1.9482101210191942 0.04993902062155739 0.9511890482808679 2.0011126689147973 0.09245995398593074 0.04073947918922305 1.1330782547238156 0.04881127645113362 0.04993872081488871 1.0987753775062992 0.9592605270488337 0.09246009700405758 2.051593372901166 0.9500614153705071 0.04881154662215065 1.9989000051176091 0.9507328302437674 0.1709883492191352 2.121924144699487 0.04926766264446162 0.8290361423123049 1.878222483221144 0.1709653138601881 0.04926963822135808 1.2204210309854164 0.04157177634971507 0.09890177867829197 1.1404198174514721 0.09890357751829566 0.9584301720432226 2.057234793956348 0.9010990321957818 0.0415732543576904 1.9426185109478613 0.6331994824067367 0.5163645877785228 2.147966865533782 0.5741058620823188 0.4849287359376812 2.057014881676972 0.6339066748018594 0.4448127304166246 2.077002344776098 0.5803081154526065 0.5554105733225275 2.133460160760796 0.3645601556940457 0.4935706402761902 1.856490608365461 0.4165579632259991 0.5134005066788054 1.9284827607717787 0.3715614426355371 0.5597412728001457 1.929540539063496 0.4015551347437116 0.4387554334604925 1.838636462458992 0.4843714358735818 0.6341491678948008 2.11661622179663 0.5117171627030859 0.5670376310063057 2.076932741186921 0.5561629897309829 0.6275503456092131 2.181678521620194 0.439081205878495 0.5834715850420811 2.0206406004652213 0.4083289606055011 0.929199239389176 2.337463755073313 0.426859210389647 0.8690272316360229 2.2947407530846813 0.4759838584200369 0.9235633970483892 2.3994881415106164 0.9288246900522868 0.5917293403512813 2.520499373714516 0.8710183516666348 0.557541838197036 2.427576559463913 0.9303026065354069 0.5358578834814671 2.466125142248411 0.5916591809001265 0.07135500965771054 1.662997979195111 0.5609385837146948 0.1266017660536639 1.6866958361832598 0.5357051658935953 0.06990124801011076 1.6056201134300765 0.1451987149655075 0.802649382798227 1.9470744064484502 0.3898900373955501 0.3173550159161914 1.7058159068280483 0.3578320364168985 0.3772423709286388 1.7337204036052318 0.3490159688384519 0.2572994491234004 1.6053611395345926 0.4202439552097213 0.2603670700250064 1.6797261701043207 0.3947806084882685 0.1897425288601874 1.583916698878242 0.3231731776597769 0.6220867861847701 1.9435985155202986 0.393590726820295 0.6365271407692397 2.028323785511568 0.8026493827982271 0.8548012850347143 2.6565924769294575 0.2568255166257933 0.6566167151267118 1.9118319854369843 0.2670889023068816 0.5883557947223944 1.8539286305469036 0.1926068343362755 0.6085066623000651 1.8001296840813799 0.6792313539628495 0.3958402868896192 2.0735835593253653 0.6162883427122575 0.3788337001113473 1.9936394880421116 0.7356971833120711 0.3489123889627602 2.0835716554450374 0.7370495256007155 0.4285783524895035 2.1646469172106446 0.854801285034726 0.1973506172018774 2.0518240459286066 0.8087824443914929 0.3963586806456835 2.2045427331214174 0.6066245291838283 0.6856565605152456 2.2902194845591652 0.6317261691974395 0.6176122795524345 2.247704899542813 0.6514165977325109 0.7467336294531871 2.3965077832483788 0.5749556942213093 0.748099604545935 2.321462656630608 0.6041359145151312 0.8083764355754607 2.4109235242694704 0.6008547615973187 0.3163460743139019 1.915468419056937 0.545988143723151 0.3064755615149686 1.851204659028416 0.599555659
[...]
      <PointData>
        <DataArray type="Float64" Name="w" NumberOfComponents="1" format="ascii">
 0.9999989541198229 1.9999989254400772 2.999999790839937 1.9999998002911739 1.0625015282242196 1.1249914345203147 1.1875063927548215 1.2499986972598154 1.3125003628601548 1.3749995035623261 1.4375002743008145 1.5000005991723144 1.5624999435571705 1.625000001381265 1.6874999978334024 1.7500000004016276 1.812500001753525 1.8749999885432842 1.9375000547498094 2.0625016223817694 2.124990892483531 2.187506804537049 2.2499985998671934 2.312500622291955 2.3749994098089404 2.437500111442178 2.5000003423769668 2.5624999734024967 2.6250000006542 2.687499999025967 2.750000000159551 2.8125000001431757 2.8749999975364795 2.9375000096056683 2.937500010498544 2.874999996359254 2.8124999991218607 2.7499999988646846 2.6875000005954672 2.625000000293365 2.5625000000416414 2.499999999916547 2.4375000002468545 2.375000000094775 2.312500000018058 2.2499999999884426 2.187500000312414 2.124999997992216 2.0625000100784727 1.9375002178242353 1.8749987953217968 1.8125008977995498 1.7499998160997425 1.6875000238241937 1.6249999979895606 1.5624999960049675 1.4999999981056478 1.4375000004715588 1.375000000018373 1.312499999998706 1.2499999999684845 1.1875000017831803 1.1249999888246385 1.0625000532169826 2.9094283570984842 2.8515595928720763 1.8508391789013552 1.8976382352914465 1.7980848715497948 1.9687490632511773 2.292662690461266 2.188435619503102 2.235497363905204 2.133344586555149 2.595628503193405 2.581022742383933 2.490834612108327 2.5122099034513727 1.707610331697473 1.8101032042541692 1.757817779682459 1.8652656547854471 2.70604633478375 2.72657470660523 2.6405996497493387 2.667557393358403 2.6025799069171485 2.112956093093396 2.1724224387212043 2.1355501697069434 2.2262728904249327 2.1973215546287963 1.8858626601234456 1.8275185938777752 1.8636682859317326 1.774019673441403 1.8019471222970793 1.2935341611102242 1.27417976385607 1.3609087262060902 1.3323703712246984 1.4089549251862699 2.8364625501067957 2.779047064226583 2.743144149186061 2.7818822454603094 1.2221118344096302 1.3208799719163011 1.2783725331940483 1.1932301749524057 1.2904843884804524 2.0954320267934308 2.091985856215522 2.1649114279003165 2.0003911979273723 2.0166906156623017 1.9044796295893802 1.9065494845164708 1.8349835667285106 1.9982350671686355 1.981833539193469 2.7715761417199616 2.676214796090576 2.721149362807121 2.6997663946130905 1.9421575169620824 1.9250700626553412 2.0568141943833624 2.07433821852984 1.2545200146070783 1.185389321100075 1.9482101210191942 2.0011126689147973 1.1330782547238156 1.0987753775062992 2.051593372901166 1.9989000051176091 2.121924144699487 1.878222483221144 1.2204210309854164 1.1404198174514721 2.057234793956348 1.9426185109478613 2.147966865533782 2.057014881676972 2.077002344776098 2.133460160760796 1.856490608365461 1.9284827607717787 1.929540539063496 1.838636462458992 2.11661622179663 2.076932741186921 2.181678521620194 2.0206406004652213 2.337463755073313 2.2947407530846813 2.3994881415106164 2.520499373714516 2.427576559463913 2.466125142248411 1.662997979195111 1.6866958361832598 1.6056201134300765 1.9470744064484502 1.7058159068280483 1.7337204036052318 1.6053611395345926 1.6797261701043207 1.583916698878242 1.9435985155202986 2.028323785511568 2.6565924769294575 1.9118319854369843 1.8539286305469036 1.8001296840813799 2.0735835593253653 1.9936394880421116 2.0835716554450374 2.1646469172106446 2.0518240459286066 2.2045427331214174 2.2902194845591652 2.247704899542813 2.3965077832483788 2.321462656630608 2.4109235242694704 1.915468419056937 1.851204659028416 1.8587519975480435 1.3421305347521009 2.193949355945582 1.7727484458854297 1.3384001323448154 1.7824412015510145 2.2204750088339162 2.27153976477539 2.289621616128456 2.226978070211235 2.4404363143587005 2.3436317866304965 2.422236041284294 1.4883184723258056 1.5303913838964356 1.4529025721038589 2.664008567034008 2.2031721123958663 2.1348426602265733 2.1315996447659282 1.773023443462307 1.4088960197111742 1.3564147993573035 1.376934375647505 2.1010160408225276 2.1524726433596513 2.0232710300902412 2.5896174613598464 2.647693309839663 2.6212794277239255 1.8980544264290982 1.846351228989159 1.9747384607040765 2.512852647061437 2.465262091866578 2.5472499568529003 1.723830303099328 1.8677129292567942 1.942865156921957 1.780276246318061 1.8643578327568784 2.6023151343002255 2.578047397464076 1.4245742185815595 1.5086889042702276 1.4652307231827013 1.5285910625830361 2.2842811936624643 2.055026448259886 1.9834525039717597 2.030049938847062 1.4071248325949013 1.4200156566554187 1.3973884416001716 1.4871922166120004 1.4733546335559597 2.0276820911967257 2.5251799050194377 1.9708707557343412 1.6659070438443064 2.2680386333366123 2.2457612044678714 2.177877444834194 1.9292244849554485 1.9944891710546833 1.7152073021257574 1.7917344015854888 1.7368494873745968 2.341791155461523 1.4961316349706304 1.54890053504744 1.5767702268308883 1.627239973907268 2.087086860707571 2.126087001497232 2.1393684149417496 1.7709016213654551 2.216820132374409 1.5688931621566118 2.2165524664315663 2.494668584728437 2.3340074452861006 2.396656547685068 2.3068009583719924 2.3661725274912584 1.9447590165403847 1.639014588726542 1.697106672905503 1.5089060850812275 2.05421350795722 2.4880656347590935 1.4681100105505904 1.653083408902499 1.560957179704507 1.6092126705293526 1.5718461113922997 1.5221322341608183 1.611152249469627 2.4289036180218333 2.490331706940787 2.3406997965491714 1.7031068494397257 2.0844027536343415 1.5746819586117613 1.9084546701320138 1.8222878192579708 1.5568307796038336 2.0157007155479967 2.2187771170678854 2.0505645764696405 1.9221295955741062 1.9990079661036895 2.431511090940783 1.9979938102582355 1.9375677934361728 2.002229685105678 1.5653393363272348 1.6401710621698669 2.266683216503899 2.555444283817472 2.3564255972260053 2.405005154816885 1.4341875939114765 1.4835335999046362 2.4047215703171894 1.7529360357799233 2.3501263684862588 2.3427949323703476 2.342494484305158 1.6484644956575858 1.8294358060130496 1.6860718647247948 1.6661614705232446 1.7633999363500075 2.408435307645366 1.7154532804614262 1.7604335525777435 1.6497683163443846 1.7515923414645214 2.3123096006249524 2.461621465941759 1.7370858170695744 1.537176785693505 2.2706388220298965 2.263402299418231 2.2529566394055234 1.978268047311785 1.8876505852201086 2.075447900572541 2.195975779493955 2.1215403621122966
</DataArray>
        <DataArray type="Float64" Name="φ₁" NumberOfComponents="1" format="ascii">
 0.9977471141455238 2.0002930505646948 3.000411316107275 2.001031124849015 1.0661259577104456 1.128971535701124 1.1842476387775411 1.2508266103938375 1.3127400172271295 1.3782128419929907 1.4340558858361332 1.4933377987236267 1.5656359231194223 1.6250329697810872 1.6890722038903088 1.74923575436072 1.8127024683833595 1.8756408427678992 1.9365193609908367 2.0567592731165334 2.1251292929555947 2.1698569112804034 2.242152105474818 2.301584151369136 2.367273897133422 2.435926188157537 2.4915986485049393 2.556978591033735 2.61848396799718 2.6822127516158805 2.745082629034882 2.806741626868356 2.871791173207639 2.9368566885515723 2.937782206271869 2.8743829631483697 2.8122852746976044 2.7497675425418713 2.686568762125757 2.6250027237054834 2.5633930016326567 2.50129448222856 2.4373588076550075 2.3734052520024966 2.311217040836266 2.2509232455212054 2.1871874444065247 2.1236711415851963 2.0636015156937697 1.9407622819848491 1.880889337174744 1.8177660252553696 1.756229459589474 1.6924706674774994 1.6322427258693155 1.5682916867204504 1.5039355371888417 1.443565292899657 1.3805251349555938 1.3181158928297627 1.2547093425172677 1.193538070104013 1.1297450592987013 1.0632006244096808 2.9093861221256656 2.856851948828896 1.8506527850842813 1.8968309893830162 1.798805915974096 1.970855700876091 2.296173736389681 2.187103885574427 2.240680723628985 2.131104767463107 2.6065407204270317 2.5922170822838444 2.500317179383075 2.5180782503372674 1.704800467441774 1.813126429101184 1.7565540811486264 1.8697669488580178 2.705672529606725 2.7261335752181326 2.6445622230874557 2.66851733816776 2.6013669463115905 2.118720984906004 2.1796125380554416 2.139145148955078 2.230305988612939 2.20475332151078 1.8782507370736947 1.8158007972147843 1.8582348800529453 1.764165489468 1.7915727128042778 1.2953892040575783 1.2754124674734046 1.361740525464373 1.3325115974636348 1.4105549245497089 2.838194663334954 2.7872435210270177 2.7440317633246183 2.7828979892359076 1.2129518295303994 1.3163633723145458 1.2691038309858047 1.1870252101110261 1.2925119470844713 2.098331184158628 2.0910294665619147 2.1625032457094915 1.9977269205988142 2.0136672106596656 1.902014325684237 1.9097462702547283 1.8375796367339587 1.9982033495773834 1.9850915960617657 2.781739999712587 2.6852626376071074 2.732370182114539 2.7033652801671453 1.9366127914334683 1.912792977042446 2.059294104251419 2.0846458607428486 1.2584843108102568 1.194701350712401 1.9398994649264947 1.9969635558918737 1.124256176396469 1.0974060119221165 2.0606522659750066 2.0021895456887364 2.1323255739035365 1.8684983196927436 1.2245288723156929 1.1344473724272104 2.058024891428964 1.942596094644959 2.1519586192342257 2.0601365853400098 2.0813640038344494 2.138261582295447 1.857517307578822 1.9266810975319701 1.928674680331208 1.8370850002261645 2.1179752099920264 2.075433763357353 2.1843359843818324 2.022250686109311 2.338502339734389 2.2978274606391107 2.398338571981521 2.531817401522585 2.434829239361714 2.4771325006630587 1.6633381375833514 1.6845286419578667 1.5986431279955433 1.9436072360570704 1.7048767780605245 1.732197774162147 1.6068434375431377 1.6769259567543853 1.5846852352447511 1.9434567565540903 2.0281037675258555 2.6600248582476014 1.9100114289186938 1.852478904727801 1.797101981595463 2.079072110696693 1.9981608650210503 2.0894849091846286 2.172041798982689 2.0563109956315095 2.2116820047006325 2.2923426897724597 2.250046804939609 2.3990814834618925 2.324823621674264 2.4111552632442885 1.918008181769523 1.8519040131276119 1.8612024369885591 1.3427649610765322 2.195146409351929 1.772624327783641 1.329829427022241 1.783160879495108 2.2260517254935466 2.2795054828505417 2.296746712752279 2.227661072357772 2.444921679198891 2.350397942502157 2.428310203641214 1.4914433981901514 1.5295269592604508 1.4537318396159398 2.6746723786034043 2.2076898988993885 2.142199184903683 2.13485531111839 1.7721743212305008 1.4092352812839275 1.3499855164885441 1.3756722688975924 2.1008124014246037 2.151509282302257 2.0225096743735502 2.592624413282352 2.6587822942887156 2.626522494881024 1.8996776902869792 1.8491010225264228 1.9772875848811946 2.514135051709769 2.4702093597867982 2.550513343866412 1.714670833173451 1.8651842631938338 1.9353783125493371 1.7722559830696354 1.8590575324558745 2.602853260833012 2.5789703822485692 1.4203694475692148 1.5057268730648123 1.4594066203826515 1.5251503320695505 2.289912905245506 2.063884885714833 1.9822518719787274 2.028571223209446 1.4048750662958476 1.4227512372207634 1.3876820932492815 1.484038206238108 1.4722281176969394 2.0275871375407157 2.5340131565252073 1.974605179490529 1.6541701693606505 2.27352046818185 2.251890535569822 2.1848710430939997 1.9310019775863676 1.994526704418792 1.7128840247836736 1.7887025898310216 1.7370557107892195 2.346842240129099 1.5005610798772586 1.5484962101822302 1.5763534598177809 1.6210639992487692 2.0873889563143524 2.127068946800278 2.140005389320027 1.7698067720277968 2.2193360167536462 1.5683391247745968 2.2173094637909143 2.4980819977976276 2.335312030877692 2.4023743426789754 2.3143642272609366 2.3742083070909534 1.9442035752698885 1.637136302672176 1.6982849315657609 1.5094895851824106 2.0573627074973055 2.490355786137107 1.4581138801458247 1.6487597052703282 1.5549227210050707 1.6074062990923526 1.5653820417348783 1.5130727640617203 1.6053237917757162 2.424975189420638 2.4865713483778573 2.3437095541207458 1.6988835726048506 2.087071100021916 1.5702266155205598 1.908831712571494 1.8258292798301563 1.5569540075593806 2.0161480863896473 2.2192369459067196 2.050146505279411 1.9239426446727204 1.995745515480562 2.4344231742148343 2.00502014631387 1.9434116322120099 2.0086012758313325 1.5663950721493198 1.6394323306789513 2.2698372408130885 2.5565498974721956 2.3593178627502467 2.4063674715104284 1.4303998518914378 1.4941833640338766 2.4103894206897376 1.7516046116292183 2.3573578193492 2.350173720481488 2.348757401297032 1.6466935824335363 1.827154448224562 1.6823664288554243 1.6661884654349763 1.7625767334692826 2.4094132744484478 1.7107240298260789 1.759287666644031 1.64918228401726 1.7471348479439837 2.3131769843757204 2.461075121579794 1.730512209091405 1.5352308616312174 2.271635805513038 2.2650287981171418 2.2551576592869598 1.9775344763517706 1.8862057583623157 2.075842535011903 2.199866946539836 2.130171030017472
</DataArray>
        <DataArray type="Float64" Name="φ₂" NumberOfComponents="1" format="ascii">
 0.9998381967668725 1.9976634894054999 3.0009439939266147 2.0003220528647017 1.0681156815377542 1.1253323055956834 1.203671735681008 1.2575618103861521 1.3227751311815512 1.3854462250233162 1.4417120097057585 1.512238825498047 1.5673179442902234 1.632726738540934 1.6935769129515328 1.7541332171491215 1.8173847022232092 1.8796489756338268 1.9381040305044053 2.0660796792467653 2.129226176447554 2.183918255724894 2.25057126703986 2.3113915339457796 2.377409241507568 2.436971198542189 2.4966276639163065 2.5634267028210735 2.6259490440535704 2.688750378042028 2.7490233343276964 2.81205339499321 2.8739819703780354 2.937702125536952 2.9361333499666884 2.870508158574486 2.8108192255752886 2.746411232650082 2.6825131000713256 2.6195819014913853 2.5583289839010774 2.4950453218170328 2.430600625546951 2.3682754095772016 2.3059300884036436 2.244991052244137 2.1817835223340944 2.1195463161352137 2.0602552345814726 1.9360410528496974 1.8747962074865594 1.8121944819526852 1.751037980250131 1.6886466171485537 1.6256982492013898 1.5605679467551261 1.500277937923682 1.4380891241834288 1.3751881957607541 1.3125475500990076 1.2505604247694013 1.187724062358702 1.1247334796006017 1.0634377319020818 2.909098595416257 2.8531522127123554 1.8497834138309712 1.8967486024784463 1.7983676326824274 1.967027759664726 2.3045950965879998 2.200309756312034 2.2467658198094695 2.1395264393533133 2.591226488009841 2.585084103406546 2.487033733826182 2.5160994843544726 1.69693127471617 1.802425831642779 1.7518607921239642 1.8647171270467622 2.7170758395751853 2.733464076694803 2.6482109017075968 2.6780644020807163 2.6129779088610823 2.1136169481261593 2.1731224067117845 2.1384002926013284 2.2277682575928646 2.1964465242517863 1.88916267129719 1.8249451575238307 1.863806568204046 1.7736790400405764 1.8021974944809165 1.2874857506165016 1.2676430517175645 1.356011288165584 1.3269378289107814 1.4025550569554364 2.8451238706724578 2.780554188109066 2.750528694126457 2.7891251419059104 1.2233513235517979 1.3211055194722887 1.2765869225524553 1.1950361611455078 1.2868951073006913 2.1069148317835587 2.103183320238874 2.175693333667436 2.007927639167159 2.01890278148821 1.8962113593206333 1.899102668226408 1.827502266752805 1.9910275439904714 1.9837388180838103 2.772384809345722 2.67993926036934 2.7226488073908484 2.706031977537538 1.9408900850556325 1.9214181049366863 2.0627287756598527 2.0838585897496524 1.2528018141432047 1.176084618713467 1.949794669143005 2.0040357352669282 1.1243991123328363 1.095376781744754 2.0423629515845367 1.9976748211194832 2.1267296142616408 1.8807679847997694 1.2099227673417097 1.1406532019335953 2.0661168507599603 1.936570216527103 2.1467989699881955 2.0569251505714243 2.0768909442511228 2.1362836809608217 1.8564726549260562 1.9290911302838165 1.92933486141619 1.8367362474462827 2.1158119302088902 2.0788996680390004 2.1831055710422085 2.0216808529264125 2.3500412151581576 2.3075260814455465 2.4111337658459386 2.5222111914139056 2.426797061348831 2.462555237318068 1.6520684801769112 1.679607631103955 1.5966647142233192 1.9513473437875528 1.7029522560760557 1.7337870221965614 1.6047533851975675 1.6753942090227418 1.5770369185041888 1.9419358215214013 2.0303827865802972 2.661322976623129 1.9133098959918784 1.8535109802689549 1.798834093825024 2.0727952537290752 1.9943650067212542 2.08278331861967 2.1623050230714815 2.052606972172283 2.2042669211225365 2.2936251913408525 2.249351749529983 2.40116585613588 2.3258613170836595 2.4198735063817356 1.9135378572949862 1.8478979698024167 1.8584675929878804 1.3398837293401207 2.199118842576166 1.7704958317300543 1.3391159804211097 1.7767762003895564 2.218567430800966 2.269146951198623 2.2882574250732675 2.239950889408208 2.439816805293359 2.343700292735929 2.4225696298145 1.483510320178847 1.5242236362471477 1.4513306093537155 2.664583209612506 2.2071120109702744 2.1324932702199018 2.1328985159539946 1.7634699843297215 1.4066299648461407 1.358148406761818 1.3772614560421996 2.1031604124438066 2.1637321072840914 2.0287627367208376 2.5906552916774404 2.647112293327448 2.624337510989043 1.9010519877250824 1.8381108561367532 1.9737838512686683 2.522596184273179 2.474852367579035 2.553209209110828 1.7197070438992466 1.8694130870469055 1.9433616655554253 1.7799489251373515 1.8650149731419399 2.6128826125763833 2.5886110286788258 1.4247802835781704 1.5096058192554236 1.4666893604222078 1.5278543477201494 2.2831852280945784 2.058457778333254 1.9840125460761948 2.0293802615689156 1.4015261770890357 1.414233020702531 1.3967736905147552 1.4867076234832177 1.4727683938269072 2.034730053592515 2.5284125736588523 1.9692450720116408 1.6688789764668512 2.266822816495321 2.246220058153452 2.177812245661793 1.930442484708225 1.9946657157434073 1.715573107893992 1.7916800512162814 1.737087881383803 2.34407040101203 1.4938133887354386 1.5418796018349634 1.5661249936185124 1.6180857535584021 2.090501254008266 2.130510275489771 2.1443951993592325 1.7696595780264444 2.2198990864603094 1.569487770347044 2.2253281155377946 2.503169993486717 2.3347181903623198 2.3973486843598293 2.3032735480402287 2.360361753957975 1.9462636028187048 1.6378290963835396 1.6979206887116534 1.5059290892676334 2.0569218720801286 2.492286833340776 1.4686640954305472 1.653886554672205 1.5603946895508165 1.611933015732011 1.5743509641423823 1.5197195538042347 1.6144247234788174 2.4392928919993144 2.4999299730491176 2.3510377234457995 1.7017277943097024 2.089612823504822 1.5749181849531873 1.906734098037639 1.8209604017875731 1.557100525086839 2.0165724869678865 2.22484987349375 2.052028559028577 1.9218306516420436 1.9990587480054112 2.4365688745434495 2.0014963435722484 1.9386886920998863 1.999283027362407 1.5624475686976214 1.6394170742872451 2.265857656842252 2.5656163138979062 2.350647584330707 2.4108058029734756 1.428267747535623 1.4870265408519598 2.4030549152449465 1.751018342760377 2.3478017032027987 2.3417713418337422 2.34509686225826 1.6497112398276594 1.8282450535495653 1.6827479890290604 1.6600753617888604 1.762445232727013 2.4177281618348636 1.7111346489423958 1.7581986997546348 1.647151562468007 1.7531743748418591 2.3203619107764126 2.4691737109285716 1.7345957877894977 1.538225385868183 2.2794867788562567 2.2707789626680137 2.2598956367158105 1.9827219223238401 1.8875971733404797 2.0764005089161506 2.1974120611241976 2.1183654532384826
</DataArray>
        <DataArray type="Float64" Name="q₁" NumberOfComponents="1" format="ascii">