<?xml version="1.0" encoding="utf-8"?>
<VTKFile type="UnstructuredGrid" version="1.0" byte_order="LittleEndian" header_type="UInt64">
  <UnstructuredGrid>
    <Piece NumberOfPoints="340" NumberOfCells="614">
      <Points>
        <DataArray type="Float64" Name="Points" NumberOfComponents="3" format="ascii">
 0.0 0.0 1.0006544326677886 1.0 0.0 2.000663630552725 1.0 1.0 2.9999684561954796 0.0 1.0 2.0006637941729926 0.06249999999987327 0.0 1.0626704787762316 0.1249999999997738 0.0 1.1251703346383297 0.1874999999995943 0.0 1.1878808047814795 0.2499999999994121 0.0 1.2506224722884132 0.3124999999992298 0.0 1.3138335968690011 0.3749999999990476 0.0 1.3757094934634535 0.4374999999988654 0.0 1.4381016192282363 0.499999999998694 0.0 1.500649863787935 0.5624999999988478 0.0 1.5633522729191536 0.6249999999990125 0.0 1.6261433779229175 0.687499999999177 0.0 1.6883185795333187 0.7499999999993416 0.0 1.7510181113927388 0.8124999999995062 0.0 1.8133551382525464 0.8749999999996708 0.0 1.8757868390794508 0.9374999999998354 0.0 1.9384137429628505 1.0 0.06249999999987327 2.062680250010417 1.0 0.1249999999997738 2.125215980861546 1.0 0.1874999999995943 2.187938176101394 1.0 0.2499999999994121 2.250698000942048 1.0 0.3124999999992298 2.313998648011344 1.0 0.3749999999990476 2.375745910237662 1.0 0.4374999999988654 2.4380279630373822 1.0 0.499999999998694 2.500620411962521 1.0 0.5624999999988478 2.5632428331070463 1.0 0.6249999999990125 2.625769825021303 1.0 0.687499999999177 2.6883825006786237 1.0 0.7499999999993416 2.751050947717763 1.0 0.8124999999995062 2.814108715528824 1.0 0.8749999999996708 2.8762048304499515 1.0 0.9374999999998354 2.937608705130744 0.9374999999997397 1.0 2.938608316129802 0.8749999999995011 1.0 2.8757612905644154 0.812499999999913 1.0 2.813029505867489 0.7500000000003465 1.0 2.7508454625711365 0.68750000000078 1.0 2.6887180824894332 0.6250000000012137 1.0 2.6257078644468343 0.5625000000016472 1.0 2.563209637619953 0.5000000000020591 1.0 2.5008281067275218 0.4375000000018207 1.0 2.438414451595218 0.3750000000015605 1.0 2.375926579894031 0.3125000000013005 1.0 2.3132696244817694 0.2500000000010404 1.0 2.2510093958245454 0.1875000000007803 1.0 2.1883519086048326 0.1250000000005203 1.0 2.1257854611981806 0.06250000000026013 1.0 2.063412720696521 0.0 0.9374999999997397 1.9376752289833536 0.0 0.8749999999995011 1.8752184303303245 0.0 0.812499999999913 1.8129416131249392 0.0 0.7500000000003465 1.750661699722979 0.0 0.68750000000078 1.6889364851211914 0.0 0.6250000000012137 1.6262367178049622 0.0 0.5625000000016472 1.5633636001701054 0.0 0.5000000000020591 1.500708446078211 0.0 0.4375000000018207 1.4382764142795603 0.0 0.3750000000015605 1.3758844405945907 0.0 0.3125000000013005 1.3131750018888313 0.0 0.2500000000010404 1.2509087265054637 0.0 0.1875000000007803 1.188254767385924 0.0 0.1250000000005203 1.1256995850977871 0.0 0.06250000000026013 1.0633582020783607 0.9540129138381733 0.9554132882096409 2.915859004508259 0.9458186567110763 0.9058124993545486 2.8664019229670608 0.4995322282144962 0.3530373305116182 1.984572225582121 0.4796947503143915 0.4195464397192155 2.0387260585967737 0.4289659112502381 0.3703934119341416 1.9315799617225928 0.5556674479558171 0.4148441769121896 2.1084099398694054 0.3484337243893381 0.9442980470307648 2.3244752057075937 0.3036141656213424 0.8859997514210144 2.2456436185884026 0.3618649364358981 0.8747345226774258 2.3008526680454575 0.3103388921437942 0.8243985134027599 2.213507903122473 0.9440762383526892 0.6515971346203796 2.626873541751232 0.8856607826210046 0.6964312551994382 2.6370241162828245 0.8659631982782574 0.6258567162217606 2.559393952844162 0.8237209852033596 0.6897560426901562 2.5908874208046955 0.6516135245785135 0.05600891000395106 1.7392854812654688 0.6965136092750744 0.1144764140348112 1.8672688239289736 0.6276276694433734 0.131199128424304 1.8266301210120384 0.6897285261946559 0.1764961704861385 1.945267039718212 0.7970452961867076 0.9095182708817022 2.743397184019253 0.7778037121495709 0.9488702116560174 2.7501015093047965 0.7534017041533525 0.8879179235209713 2.6904499561957116 0.720796028624462 0.9468843636240857 2.694622616756466 0.7057880650157399 0.8976450635297538 2.6531317026686647 0.9096764869447755 0.2037495689488837 2.1517651485460196 0.9490896508465597 0.2233194699848563 2.1967848635614065 0.8872452127072535 0.2484741744118257 2.186653199613009 0.9468833751835618 0.279204727330287 2.253892321253766 0.8940427408084156 0.3036435854380718 2.250868594266941 0.09032188033856055 0.7963071600105689 1.9249655233140603 0.05091504001761799 0.7767567985352825 1.852045195067967 0.1127536496635177 0.7517545930121805 1.9153480305053086 0.0531470474591681 0.7209428958763805 1.801923293420426 0.1059519292397888 0.6968125601282935 1.8559644463923697 0.2036948030463718 0.09032381048480233 1.3309706858553745 0.2232495317285559 0.0509245270674497 1.297637025035524 0.2482783334612842 0.112805057784166 1.410502053500931 0.2790587400044852 0.05314865591437173 1.359151828168307 0.303310648609621 0.1061189497521519 1.4613722810804817 0.8959308066910907 0.9406118954430608 2.8532202768506094 0.8938301791839279 0.885816964962131 2.808161615493406 0.847070009992687 0.896703495670666 2.7782467041416212 0.8330792439326432 0.9489007119093452 2.801782275185174 0.06332451751218007 0.1588262463436671 1.2454284363146482 0.114400220834231 0.2072660733005935 1.3668745967407951 0.05673401492882871 0.221713374048182 1.3040112892550249 0.09633592837128266 0.09749106702155712 1.2177403323134568 0.136764157415852 0.1543083165663368 1.333941174188702 0.1588352405436785 0.936685224452867 2.1198521087183457 0.20730842035607 0.8856524982144284 2.139765979714297 0.2217397618778197 0.9433014875379535 2.191546707298465 0.09749106702156361 0.9036640716285367 2.0262089363219165 0.1543083165663411 0.8632358425841528 2.0620205467683395 0.8411778087676715 0.0633319012599721 1.9288302615191562 0.792763692789281 0.1144505356931593 1.9540065696077638 0.7783029322210929 0.05675205204536737 1.8616097268120126 0.9025089329785919 0.09633592837128269 2.023906198503716 0.8456916834338974 0.1367641574158532 2.0269532938306263 0.9311380405532663 0.8405328475129524 2.7968396710771293 0.8844550139331883 0.7927818750505282 2.7228865207139776 0.9431621770921876 0.7781047011804797 2.7466021287503932 0.8598851511635245 0.8405718457930426 2.745043892467193 0.09885430803860264 0.8439183043661819 1.9777886481511429 0.05551474889910517 0.8697345943060519 1.9443712067068624 0.901145559188245 0.1560949386311557 2.0922513427024536 0.9444852830324362 0.1302661144921609 2.0938750446803547 0.1560821394421001 0.09885474440653726 1.2885384690717863 0.1302654056936114 0.05551474889910278 1.2040210338747688 0.04073947918922492 0.9075400460137077 1.9601830066946646 0.04993902062155739 0.9511890482808679 2.008873531380858 0.09245995398593074 0.04073947918922305 1.1445019301037265 0.04881127645113362 0.04993872081488871 1.1061019545559567 0.9592605270488337 0.09246009700405758 2.063620462172823 0.9500614153705071 0.04881154662215065 2.0066201632301444 0.9507328302437674 0.1709883492191352 2.142348841046339 0.04926766264446162 0.8290361423123049 1.8989201514518794 0.1709653138601881 0.04926963822135808 1.2399581177664631 0.04157177634971507 0.09890177867829197 1.152313344288913 0.09890357751829566 0.9584301720432226 2.069779947443948 0.9010990321957818 0.0415732543576904 1.955125287761121 0.6331994824067367 0.5163645877785228 2.283449078502417 0.5741058620823188 0.4849287359376812 2.199116883305801 0.6339066748018594 0.4448127304166246 2.2116589738514327 0.5803081154526065 0.5554105733225275 2.2738329982132957 0.3645601556940457 0.4935706402761902 1.9920564687510016 0.4165579632259991 0.5134005066788054 2.0694200096298214 0.3715614426355371 0.5597412728001457 2.0645579710073187 0.4015551347437116 0.4387554334604925 1.976417892888808 0.4843714358735818 0.6341491678948008 2.252445663864694 0.5117171627030859 0.5670376310063057 2.2193424324892743 0.5561629897309829 0.6275503456092131 2.3172720566297658 0.439081205878495 0.5834715850420811 2.1601711026725776 0.4083289606055011 0.929199239389176 2.378737846604753 0.426859210389647 0.8690272316360229 2.365287406269413 0.4759838584200369 0.9235633970483892 2.4442603753607175 0.9288246900522868 0.5917293403512813 2.561510124436426 0.8710183516666348 0.557541838197036 2.4969566588975938 0.9303026065354069 0.5358578834814671 2.507231868458579 0.5916591809001265 0.07135500965771054 1.7042419937086346 0.5609385837146948 0.1266017660536639 1.7555107005834247 0.5357051658935953 0.06990124801011076 1.6468976615171806 0.1451987149655075 0.802649382798227 2.0021398573950795 0.3898900373955501 0.3173550159161914 1.8279982777120538 0.3578320364168985 0.3772423709286388 1.8610543302501947 0.3490159688384519 0.2572994491234004 1.7102324966367668 0.4202439552097213 0.2603670700250064 1.791828187820219 0.3947806084882685 0.1897425288601874 1.673722019022915 0.3231731776597769 0.6220867861847701 2.0666653299684725 0.393590726820295 0.6365271407692397 2.1590866357729537 0.8026493827982271 0.8548012850347143 2.710131031274951 0.2568255166257933 0.6566167151267118 2.017884653196669 0.2670889023068816 0.5883557947223944 1.968501958280619 0.1926068343362755 0.6085066623000651 1.8919821618385726 0.6792313539628495 0.3958402868896192 2.1977160737528947 0.6162883427122575 0.3788337001113473 2.1248150595318975 0.7356971833120711 0.3489123889627602 2.1914303566052906 0.7370495256007155 0.4285783524895035 2.278404966558135 0.854801285034726 0.1973506172018774 2.106429364393802 0.8087824443914929 0.3963586806456835 2.295822190063421 0.6066245291838283 0.6856565605152456 2.412881887540659 0.6317261691974395 0.6176122795524345 2.377163875046522 0.6514165977325109 0.7467336294531871 2.5012481003767064 0.5749556942213093 0.748099604545935 2.432199793870188 0.6041359145151312 0.8083764355754607 2.5024627082583173 0.6008547615973187 0.3163460743139019 2.039296356017772 0.545988143723151 0.3064755615149686 1.976299688756222 0.599555
[...]
      <PointData>
        <DataArray type="Float64" Name="w" NumberOfComponents="1" format="ascii">
 1.0006544326677886 2.000663630552725 2.9999684561954796 2.0006637941729926 1.0626704787762316 1.1251703346383297 1.1878808047814795 1.2506224722884132 1.3138335968690011 1.3757094934634535 1.4381016192282363 1.500649863787935 1.5633522729191536 1.6261433779229175 1.6883185795333187 1.7510181113927388 1.8133551382525464 1.8757868390794508 1.9384137429628505 2.062680250010417 2.125215980861546 2.187938176101394 2.250698000942048 2.313998648011344 2.375745910237662 2.4380279630373822 2.500620411962521 2.5632428331070463 2.625769825021303 2.6883825006786237 2.751050947717763 2.814108715528824 2.8762048304499515 2.937608705130744 2.938608316129802 2.8757612905644154 2.813029505867489 2.7508454625711365 2.6887180824894332 2.6257078644468343 2.563209637619953 2.5008281067275218 2.438414451595218 2.375926579894031 2.3132696244817694 2.2510093958245454 2.1883519086048326 2.1257854611981806 2.063412720696521 1.9376752289833536 1.8752184303303245 1.8129416131249392 1.750661699722979 1.6889364851211914 1.6262367178049622 1.5633636001701054 1.500708446078211 1.4382764142795603 1.3758844405945907 1.3131750018888313 1.2509087265054637 1.188254767385924 1.1256995850977871 1.0633582020783607 2.915859004508259 2.8664019229670608 1.984572225582121 2.0387260585967737 1.9315799617225928 2.1084099398694054 2.3244752057075937 2.2456436185884026 2.3008526680454575 2.213507903122473 2.626873541751232 2.6370241162828245 2.559393952844162 2.5908874208046955 1.7392854812654688 1.8672688239289736 1.8266301210120384 1.945267039718212 2.743397184019253 2.7501015093047965 2.6904499561957116 2.694622616756466 2.6531317026686647 2.1517651485460196 2.1967848635614065 2.186653199613009 2.253892321253766 2.250868594266941 1.9249655233140603 1.852045195067967 1.9153480305053086 1.801923293420426 1.8559644463923697 1.3309706858553745 1.297637025035524 1.410502053500931 1.359151828168307 1.4613722810804817 2.8532202768506094 2.808161615493406 2.7782467041416212 2.801782275185174 1.2454284363146482 1.3668745967407951 1.3040112892550249 1.2177403323134568 1.333941174188702 2.1198521087183457 2.139765979714297 2.191546707298465 2.0262089363219165 2.0620205467683395 1.9288302615191562 1.9540065696077638 1.8616097268120126 2.023906198503716 2.0269532938306263 2.7968396710771293 2.7228865207139776 2.7466021287503932 2.745043892467193 1.9777886481511429 1.9443712067068624 2.0922513427024536 2.0938750446803547 1.2885384690717863 1.2040210338747688 1.9601830066946646 2.008873531380858 1.1445019301037265 1.1061019545559567 2.063620462172823 2.0066201632301444 2.142348841046339 1.8989201514518794 1.2399581177664631 1.152313344288913 2.069779947443948 1.955125287761121 2.283449078502417 2.199116883305801 2.2116589738514327 2.2738329982132957 1.9920564687510016 2.0694200096298214 2.0645579710073187 1.976417892888808 2.252445663864694 2.2193424324892743 2.3172720566297658 2.1601711026725776 2.378737846604753 2.365287406269413 2.4442603753607175 2.561510124436426 2.4969566588975938 2.507231868458579 1.7042419937086346 1.7555107005834247 1.6468976615171806 2.0021398573950795 1.8279982777120538 1.8610543302501947 1.7102324966367668 1.791828187820219 1.673722019022915 2.0666653299684725 2.1590866357729537 2.710131031274951 2.017884653196669 1.968501958280619 1.8919821618385726 2.1977160737528947 2.1248150595318975 2.1914303566052906 2.278404966558135 2.106429364393802 2.295822190063421 2.412881887540659 2.377163875046522 2.5012481003767064 2.432199793870188 2.5024627082583173 2.039296356017772 1.976299688756222 1.970475530671399 1.3951063479646326 2.2842513702602765 1.882512171087384 1.366470796524365 1.88386659429908 2.333147746653933 2.367424992205102 2.3928414328250565 2.255955479658049 2.5375546666050144 2.4538292329846914 2.5146727672276037 1.5552385446464632 1.6179930939808953 1.5241402033950684 2.6920047102511586 2.273330516691854 2.2234087653029637 2.204110524460022 1.8019693342404066 1.473524901076959 1.4022463673421282 1.4390424425227362 2.167531017075758 2.1992672650310388 2.087675785788596 2.654546142292319 2.6932407866642003 2.6835926787374107 1.964527192403335 1.893082564529049 2.0387725823750817 2.580677089574882 2.553841139448857 2.618459208971297 1.757503693225404 1.940711496530706 2.0152564503617434 1.8482239299092074 1.953448732494864 2.635435008279356 2.648518064878339 1.481228259588784 1.5848993032708043 1.520222263232823 1.5947545824698526 2.322304296549766 2.126933831067606 2.1270459969980102 2.1743049084274433 1.4401243476008503 1.490152943253376 1.4287630859638396 1.5671416799813156 1.5558736916159028 2.1120943450969665 2.6081804764475094 2.054879296859381 1.7088066675779578 2.383358911558571 2.3721212828163845 2.303656822488351 2.0726767613779638 2.138235119878077 1.8332141829003425 1.9175441983368025 1.8498621382092142 2.457682884283182 1.5464502217235219 1.5939427039457796 1.649091916994686 1.6980401328699426 2.2083281676723825 2.252708912173127 2.2510704173081697 1.8993596780211446 2.3313790201879985 1.6622538959924893 2.3189986101327076 2.548404319734845 2.3819513761114743 2.4411605903569664 2.3778182205589586 2.436746478404029 2.035390556829461 1.7478280459082995 1.8173470306833805 1.5972833399150106 2.144219162101848 2.5773126063042504 1.5029698206077096 1.733205851100329 1.6184306754451774 1.6918143649261321 1.5969313916892018 1.5503870648306917 1.6643285554636247 2.4863951942328972 2.5219670303734048 2.4193146486744674 1.779215566217155 2.1824688565462784 1.6601704932447983 2.0077832096975117 1.9149760818556507 1.6534299580802685 2.1372418229741026 2.3426989938870397 2.1637563314464914 2.0560156282642126 2.1010910561825815 2.5327586790699863 2.10058117910047 2.0502162886398985 2.1211476758472894 1.6662530460987084 1.7534597387329425 2.3321724470085297 2.580306608186152 2.3796976685230593 2.4292028823622167 1.4570622335402346 1.508262690543376 2.490994303894522 1.8391789251460213 2.438883871403127 2.4449636150311598 2.4588762513881597 1.7500501103262174 1.953586948910704 1.7844578603460584 1.7634161228402774 1.8831992574659404 2.4858264744230953 1.8065459686706646 1.88656174694428 1.7645267108723368 1.8541174860364542 2.4147226252730603 2.5336666004842896 1.8088628064622858 1.607987674071587 2.3688133019412696 2.352443771827439 2.377630773690372 2.092295308912347 2.0126245862745913 2.2093148231451787 2.3296663342133153 2.2472643356176722
</DataArray>
        <DataArray type="Float64" Name="φ₁" NumberOfComponents="1" format="ascii">
 1.798735687849604 1.8832024900925086 2.201370285330533 2.116767920304865 1.8045647474064042 1.8180155764708503 1.8343653706073857 1.8507630869855145 1.8648503477204268 1.877755780697044 1.8877286949446808 1.8924069301206798 1.8959483323931716 1.8973752108822044 1.8961665172501554 1.8927218882527719 1.8886046716544271 1.8851248143713015 1.883154010673144 1.882340460842201 1.881733587113539 1.8851251618046385 1.894565072089329 1.9102324309746541 1.9318772836947702 1.9599327349893052 1.9918867305789416 2.025999563671519 2.061894374181236 2.0986097643274424 2.1329747473377725 2.1628594289352776 2.1846249877825197 2.197524225356413 2.1952554243433986 2.182406963706911 2.165544016465124 2.1492089618687102 2.1351683954673017 2.1221999018509083 2.1124853513738935 2.1074237513167997 2.10436490882028 2.1024383582541724 2.103740600620287 2.1072402696157524 2.111364077721998 2.114844316030013 2.1168158306312823 2.1176326281090785 2.1182447891540157 2.114847576961205 2.1054572298768512 2.089532246907548 2.067841078274192 2.0410311134811376 2.0088407085914084 1.973659245256175 1.9375844661255197 1.90124416777092 1.8668967136745265 1.8373220060367672 1.815473823793631 1.8021768173426571 2.198980741045424 2.193338146160596 1.9260197694778536 1.957488366117628 1.9307972021187283 1.9579379798428533 2.1177990431602045 2.1204358162614385 2.123883938552612 2.1169266218288927 2.0810482129621186 2.1094335222290783 2.0697414190436754 2.1066975729126707 1.8820277119638718 1.879556674596743 1.875387349598609 1.8830851801649535 2.178899426138986 2.1731007704865477 2.1718483515131615 2.162491475937681 2.1648012586496446 1.8881329043088675 1.8899561699169554 1.896404065679045 1.9013784737646193 1.9103585438270545 2.111851804775833 2.1100459112149 2.1036230986870756 2.0984789365885574 2.0897630924745876 1.8212057716471608 1.8271415788549534 1.8283943282303714 1.8374303423972989 1.836510483127323 2.193313445862759 2.1868202536938717 2.1844505374831873 2.183371118713418 1.8236918764562144 1.842978832389114 1.8497453985419559 1.80931680335947 1.8245765020296931 2.1166661674816662 2.1176157218195777 2.11581963147235 2.11777265598126 2.116855685874115 1.8833057545626206 1.8823627283867936 1.8841429183336724 1.8822008213861188 1.8831221417552362 2.176090852458125 2.1570740457958086 2.150135028619543 2.1736237082681455 2.1163330256408015 2.1179840401706107 1.8836466063306507 1.8819938587906129 1.8153987361380914 1.810257057450661 2.118286258135786 2.117181016041904 1.8057247503553184 1.8014512368622324 1.8816893932792649 1.8827914520508569 1.8837782476221772 2.116198165242996 1.8175664147645085 1.8074210548092478 2.1165453857540357 1.8834269848466052 2.0119226397789207 1.9942399980598078 1.9746642676145856 2.031586024023438 1.9933540923728654 2.0047299798099636 2.027782492301318 1.9648628358378575 2.067269717181493 2.035356443177704 2.0676012625827154 2.041075382437569 2.123764628755605 2.1288836567583846 2.130997664539051 2.0467410182683583 2.0298291337342564 2.0142005882066836 1.8760481983625983 1.870004863388664 1.871566358098293 2.1115675315835616 1.9036231671994202 1.931443869330176 1.875382541035677 1.8821874100678957 1.8584693460167658 2.0566563261831967 2.0646050982254116 2.1728368532342834 2.071384539457551 2.0417287081534146 2.0530986198460135 1.9515103076833364 1.9426477035700644 1.9307701323621154 1.9663024561743767 1.8884096973479798 1.9490137077209182 2.0975614622911456 2.065621126038857 2.12620594935213 2.120285424245204 2.1408389660645812 1.915744213876797 1.9089330430908655 1.8962837163557487 1.827147353951529 2.119765061002813 1.8856816053325292 1.8820783382498751 1.8818903216995397 1.9890107639131502 1.9837030494949424 2.0066789929689945 2.11580476247596 2.100560097623489 2.058485115398431 2.0698912614672764 1.8445637452074368 1.8541374132443031 1.8408112119118063 2.119285095643724 1.9258244414380912 1.923849004856629 1.9092514958060618 1.8841538355384067 1.8652822706629495 1.86656680956253 1.842428858047634 2.117006262568394 2.1183163084051024 2.1138466470637827 2.1346365914979066 2.1359918894248633 2.1575403542244405 1.8830358873953446 1.8816563974491813 1.8861340654497145 2.1558503654963124 2.145541225722547 2.1594873129697145 2.0809680998683016 2.0909544738619927 2.103982180417867 2.072224074457163 2.076669504322047 2.153989289241248 2.159715059284336 1.8939487935592823 1.9150467977582353 1.9247038585079186 1.9486006796166662 1.924980528771174 1.8960115338174295 1.9793011233269653 2.0074745631280786 1.8478324407300275 1.8403159703292342 1.9141933207240498 1.8909532929516644 1.86510690413821 2.10742407974551 2.1352211981353117 1.8927037260393624 2.051738535938225 2.020811215788738 2.039453038540581 1.996082777655906 1.9851612917523052 2.015060378200525 1.962537456133052 1.9879647196028645 1.9891396725818873 2.081158197517791 1.8532294607102837 1.863180616926455 1.856316804430314 1.8630670304588595 2.088601678740729 2.0872037500348166 2.1044273073312363 1.9631123407163247 2.1099001547546075 1.922750938698351 2.117934551919509 2.147157949982537 1.9534407764578667 1.9800303189432316 1.9669567669009627 1.996115970452582 2.092723917017688 1.9319939098676677 1.9385159925173645 1.8592235240674384 1.9075561211263683 2.1418224681914295 1.95393076574543 2.001843265427298 1.9814442659798637 1.9719892950120796 2.023912805057751 1.9935911964996116 2.0151882589118677 2.1392766326616046 2.1326908137822467 2.134526528581506 2.03277943783285 2.1065616395973303 1.9438936956037782 1.8939561949391832 1.8827290553016565 1.897518336123909 2.075744327135306 2.0990891023503053 2.0915152650719606 1.933976322848089 2.0927592381175537 2.1178702185806757 1.9078477544922194 1.9072434250719639 1.9258456540568984 1.882292995702296 1.9129371288781911 1.9433179325060495 2.1370493922282634 1.9411726365597393 1.9643345294873142 1.862902758389339 1.8689064264505104 2.044321956703224 1.8753978709977472 2.01582945111153 2.035982483116529 2.09911130484471 1.9603440797532674 2.013080344849679 1.9896734890495311 1.8685220272362957 1.8944526297151865 2.1424220313619142 1.872524718623568 1.9067241551045773 1.899957699094633 2.0178315841914127 2.1275405041233304 2.1486443830114017 2.052927564216116 1.8513906165038867 2.124654526316281 2.1259512740875457 2.0971673766241903 2.07725590353721 2.0346233562416858 2.0669978298895746 2.0359780829366807 1.9712636754215074
</DataArray>
        <DataArray type="Float64" Name="φ₂" NumberOfComponents="1" format="ascii">
 1.7988501634473593 2.1168233986999367 2.200919156940304 1.8831586073859667 1.8022815669240644 1.8150784067963246 1.8373476483636928 1.867156200206336 1.9012467314491115 1.937162473382002 1.9743974657029493 2.0094939888830763 2.040426583969605 2.067346015142938 2.0895851431867083 2.105456803887021 2.114855569730689 2.118266559952067 2.117690626627364 2.1168648541587687 2.1149785010456523 2.1113888501521245 2.1072453548451278 2.104305671968667 2.1023561371733948 2.1022025345187525 2.1073182379352926 2.1141958284616336 2.1229321370785366 2.13450768236507 2.149257493686057 2.166190593090027 2.182309921646008 2.1947705506968607 2.197489562563299 2.185154104022333 2.162667602531386 2.132865578869083 2.0987633057984816 2.0628095465142016 2.0256979633783727 1.990391248600555 1.9596686327365385 1.9327884446097485 1.9104093093543304 1.8945298524269134 1.8851375757468614 1.8817214531229793 1.88229438642123 1.8831161810327122 1.8850031641395861 1.8885993816774402 1.8927235758039855 1.8959419878249784 1.8968018025221798 1.8966669486836991 1.8939554392380067 1.8869880451467698 1.877173524904239 1.865414972433232 1.8504708509041048 1.8337361030312846 1.818208566422895 1.8048270295023043 2.1989754972159794 2.194359200599676 1.9963914087480783 1.9870245964288629 1.9589460824131906 2.0265895911522764 1.9232096013972289 1.9107212456303444 1.9315762434456945 1.9151210910254965 2.150937789014694 2.163590628133984 2.1529454765871883 2.154112547002568 2.0768267875235176 2.089441304754687 2.0640542581239805 2.0848208399838253 2.159035167589689 2.149716157538053 2.1391141043637862 2.120530737888427 2.1142262989222464 2.1174203644946927 2.115359547871835 2.118470841893917 2.1156806830375614 2.1201763926697197 1.882564626956769 1.884608403176322 1.8815099825729196 1.8842293998522148 1.8798124846908038 1.8413086259036675 1.850854716849697 1.861706732788648 1.879389160640274 1.8907192474405978 2.19138142262824 2.1878374498061666 2.177343313588316 2.173383065619854 1.8137157646551192 1.8231887746330895 1.8257438906938204 1.8092814325942488 1.8209947323639266 1.883118108076461 1.889207190055581 1.8897280355050732 1.8821556221608202 1.8840457410825322 2.1168720515234436 2.1107903022786836 2.1102716058156563 2.117829507951924 2.1159469549403784 2.1862795666235804 2.1767234830817443 2.174116004480113 2.1776469189469045 1.8825872346878287 1.8833810836792388 2.117396233777185 2.1166001862163224 1.823466693132313 1.8149436607125293 1.883304214239089 1.8826886005867625 1.806154104124067 1.8015172443912864 2.116679537255003 2.117295356684934 2.1157969364977998 1.8841873745711226 1.828326226519042 1.806613269840975 1.8816013224339638 2.118385350520952 2.068327898975962 2.0379966394940037 2.065342475298267 2.043729089350474 1.9311367606843666 1.9572995339580057 1.937345605328287 1.9467490152749523 1.9949895815776897 2.008123351958987 2.033142451978012 1.970810310141788 1.9482794591367758 1.9601045424719694 1.9815156185532692 2.1446974768991907 2.143484714422766 2.1365202938719072 2.0516932862537844 2.034286854259338 2.024968177690914 1.8835835384915027 1.937141612388477 1.9223352871969697 1.914314666733802 1.9533475617609355 1.940306437761484 1.9192011835785514 1.9498068118066745 2.1603846276337815 1.8983089818324126 1.8975143447247507 1.8803860365327059 2.0824874182370796 2.0550655699437863 2.09999048114132 2.1049577246783553 2.1163972808262277 2.1203928922924895 2.0610692661456538 2.072321770256113 2.085964723300506 2.0439017715598617 2.059156020394723 2.0471451131987903 2.0204887485442216 2.0470290812620693 1.8396196078107514 1.9432570516244558 2.015216715189261 1.8381335179979492 2.03442553228936 2.1114295971850168 2.125552193318785 2.124243716855775 1.9021350936137131 2.1345376977965835 2.1209671974232367 2.1410259755109706 1.9182223626527724 1.905367709663168 1.8839230470421398 2.1623096603216543 2.1220385458248927 2.1147829125284323 2.117700662775579 2.097871291693594 1.8349989307270786 1.8293988226633071 1.8355747122266046 1.8992796276703758 1.896894687947032 1.889373155461573 2.1650370940160473 2.171344640139321 2.1644196015834454 2.100751070737339 2.1031356220123283 2.1106352157464827 2.0836823624065057 2.0937772382844377 2.1163115060569804 1.8817859760099869 1.8823517432866659 1.8863390192149918 1.8769902115530284 1.8852903643485663 2.088186166953049 2.1421838738353314 1.8374146182147175 1.8475331921014229 1.8455224619253459 1.8514319309584497 2.1198412094532912 2.113672777854636 2.012578099106625 2.010217247466533 1.9174065397853959 1.8578631672247217 1.8478633322756135 1.8470791505560888 1.854993545091753 1.8991382721878922 2.1453301568171255 2.1009231708832576 1.87550627181634 2.112571883029487 2.093090375076653 2.093167717241585 1.9766139575203587 1.9830152107105234 1.890954614464514 1.9061465399980906 1.8854595164694536 2.1060181516526786 1.9513905157187077 1.9887787823124692 1.9679385090336488 2.0007127058894096 1.9501580672346714 1.9737822366672713 1.9522660844406636 1.914165397924126 1.9901194098696655 1.8596060516785393 1.9681170908520396 2.048017312166632 2.1256031492695673 2.1299854898057826 2.130151775706741 2.1361777576594214 1.8931750553567983 1.8785040211210926 1.898607913796361 1.8793891891421386 2.1068326867682936 2.1184652111761095 1.8581848487598802 1.8650652437484871 1.8592983763185802 1.860001271274879 1.878871712528863 1.871353170159985 1.867331576151758 2.0132805099624407 2.0170815388202192 1.992992948170117 1.870208854269747 1.9200036384286936 1.856462974671048 2.0771954426824277 2.0596435656144516 1.8665706892707286 1.9317549677495838 2.012917733466402 1.9286052264699176 2.0275953594843905 1.907542411429988 2.1172697471973474 2.0916323045517227 2.0693245729049106 2.075690224845392 1.8823820452781705 1.8918086972451995 2.1259685394231553 2.048482800080022 2.115594355821463 2.1186635966388083 1.9472633018679129 1.9750439188086812 2.1414169229307234 2.0418585827305415 2.1348043179639644 2.1295628558425292 2.0896211034003658 1.8697917459646014 1.9051389336545803 1.8716484751712803 1.9810389213920436 1.9889357644267271 2.0308497000225136 2.016660018722121 1.9670137503752239 1.9086503351013941 1.8791597341576887 2.016667854165213 2.0558318358265057 1.8737893035844597 1.9452188124864145 1.9871749884077883 1.96982050780676 2.037975268584285 1.9151000713609365 1.9137108412822759 1.9718211987937642 2.0720431730184496 2.087006104295965
</DataArray>
        <DataArray type="Float64" Name="q₁" NumberOfComponents="1" format="ascii">