<?xml version="1.0" encoding="utf-8"?>
<VTKFile type="UnstructuredGrid" version="1.0" byte_order="LittleEndian" header_type="UInt64">
  <UnstructuredGrid>
    <Piece NumberOfPoints="81" NumberOfCells="128">
      <Points>
        <DataArray type="Float64" Name="Points" NumberOfComponents="3" format="ascii">
 0.0 0.0 0.0 1.0 0.0 0.0 1.0 1.0 0.0 0.0 1.0 0.0 0.1249999999997731 0.0 0.0 0.2499999999994109 0.0 0.0 0.3749999999990461 0.0 0.0 0.4999999999986921 0.0 0.0 0.6249999999990109 0.0 0.0 0.7499999999993406 0.0 0.0 0.8749999999996703 0.0 0.0 1.0 0.1249999999997731 0.0 1.0 0.2499999999994109 0.0 1.0 0.3749999999990461 0.0 1.0 0.4999999999986921 0.0 1.0 0.6249999999990109 0.0 1.0 0.7499999999993406 0.0 1.0 0.8749999999996703 0.0 0.8749999999995012 1.0 0.0 0.7500000000003471 1.0 0.0 0.625000000001214 1.0 0.0 0.5000000000020595 1.0 0.0 0.3750000000015609 1.0 0.0 0.2500000000010405 1.0 0.0 0.1250000000005203 1.0 0.0 0.0 0.8749999999995012 0.0 0.0 0.7500000000003471 0.0 0.0 0.625000000001214 0.0 0.0 0.5000000000020595 0.0 0.0 0.3750000000015609 0.0 0.0 0.2500000000010405 0.0 0.0 0.1250000000005203 0.0 0.1249999999998665 0.1250000000004269 0.0 0.1249999999999599 0.2500000000008368 0.0 0.1250000000000533 0.3750000000012465 0.0 0.1250000000001467 0.5000000000016386 0.0 0.1250000000002401 0.6250000000009387 0.0 0.1250000000003335 0.7500000000002212 0.0 0.1250000000004269 0.8749999999995224 0.0 0.2499999999996146 0.1250000000003335 0.0 0.2499999999998184 0.2500000000006332 0.0 0.250000000000022 0.3750000000009323 0.0 0.2500000000002257 0.5000000000012176 0.0 0.2500000000004294 0.6250000000006634 0.0 0.2500000000006332 0.7500000000000955 0.0 0.2500000000008368 0.8749999999995434 0.0 0.3749999999993605 0.1250000000002401 0.0 0.3749999999996748 0.2500000000004294 0.0 0.3749999999999891 0.3750000000006178 0.0 0.3750000000003035 0.5000000000007966 0.0 0.3750000000006179 0.6250000000003878 0.0 0.3750000000009322 0.7499999999999696 0.0 0.3750000000012465 0.8749999999995648 0.0 0.4999999999991129 0.1250000000001467 0.0 0.4999999999995339 0.2500000000002257 0.0 0.4999999999999548 0.3750000000003034 0.0 0.5000000000003758 0.5000000000003758 0.0 0.5000000000007968 0.6250000000001125 0.0 0.5000000000012176 0.7499999999998439 0.0 0.5000000000016386 0.8749999999995856 0.0 0.6249999999992862 0.1250000000000533 0.0 0.6249999999995616 0.2500000000000221 0.0 0.6249999999998369 0.3749999999999892 0.0 0.6250000000001125 0.4999999999999548 0.0 0.6250000000003878 0.6249999999998369 0.0 0.6250000000006631 0.749999999999718 0.0 0.6250000000009388 0.874999999999607 0.0 0.7499999999994666 0.1249999999999599 0.0 0.7499999999995923 0.2499999999998184 0.0 0.749999999999718 0.3749999999996748 0.0 0.7499999999998439 0.4999999999995339 0.0 0.7499999999999698 0.6249999999995616 0.0 0.7500000000000955 0.7499999999995921 0.0 0.7500000000002214 0.8749999999996279 0.0 0.874999999999649 0.1249999999998665 0.0 0.8749999999996282 0.2499999999996146 0.0 0.874999999999607 0.3749999999993605 0.0 0.8749999999995858 0.499999999999113 0.0 0.8749999999995646 0.6249999999992863 0.0 0.8749999999995433 0.7499999999994664 0.0 0.8749999999995223 0.8749999999996491 0.0
</DataArray>
      </Points>
      <Cells>
        <DataArray type="Int64" Name="connectivity" NumberOfComponents="1" format="ascii">
 0 4 31 31 4 32 31 32 30 30 32 33 30 33 29 29 33 34 29 34 28 28 34 35 28 35 27 27 35 36 27 36 26 26 36 37 26 37 25 25 37 38 25 38 3 3 38 24 4 5 32 32 5 39 32 39 33 33 39 40 33 40 34 34 40 41 34 41 35 35 41 42 35 42 36 36 42 43 36 43 37 37 43 44 37 44 38 38 44 45 38 45 24 24 45 23 5 6 39 39 6 46 39 46 40 40 46 47 40 47 41 41 47 48 41 48 42 42 48 49 42 49 43 43 49 50 43 50 44 44 50 51 44 51 45 45 51 52 45 52 23 23 52 22 6 7 46 46 7 53 46 53 47 47 53 54 47 54 48 48 54 55 48 55 49 49 55 56 49 56 50 50 56 57 50 57 51 51 57 58 51 58 52 52 58 59 52 59 22 22 59 21 7 8 53 53 8 60 53 60 54 54 60 61 54 61 55 55 61 62 55 62 56 56 62 63 56 63 57 57 63 64 57 64 58 58 64 65 58 65 59 59 65 66 59 66 21 21 66 20 8 9 60 60 9 67 60 67 61 61 67 68 61 68 62 62 68 69 62 69 63 63 69 70 63 70 64 64 70 71 64 71 65 65 71 72 65 72 66 66 72 73 66 73 20 20 73 19 9 10 67 67 10 74 67 74 68 68 74 75 68 75 69 69 75 76 69 76 70 70 76 77 70 77 71 71 77 78 71 78 72 72 78 79 72 79 73 73 79 80 73 80 19 19 80 18 10 1 74 74 1 11 74 11 75 75 11 12 75 12 76 76 12 13 76 13 77 77 13 14 77 14 78 78 14 15 78 15 79 79 15 16 79 16 80 80 16 17 80 17 18 18 17 2
</DataArray>
        <DataArray type="Int64" Name="offsets" NumberOfComponents="1" format="ascii">
 3 6 9 12 15 18 21 24 27 30 33 36 39 42 45 48 51 54 57 60 63 66 69 72 75 78 81 84 87 90 93 96 99 102 105 108 111 114 117 120 123 126 129 132 135 138 141 144 147 150 153 156 159 162 165 168 171 174 177 180 183 186 189 192 195 198 201 204 207 210 213 216 219 222 225 228 231 234 237 240 243 246 249 252 255 258 261 264 267 270 273 276 279 282 285 288 291 294 297 300 303 306 309 312 315 318 321 324 327 330 333 336 339 342 345 348 351 354 357 360 363 366 369 372 375 378 381 384
</DataArray>
        <DataArray type="UInt8" Name="types" NumberOfComponents="1" format="ascii">
 6 6 6 6 6 6 6 6 6 6 6 6 6 6 6 6 6 6 6 6 6 6 6 6 6 6 6 6 6 6 6 6 6 6 6 6 6 6 6 6 6 6 6 6 6 6 6 6 6 6 6 6 6 6 6 6 6 6 6 6 6 6 6 6 6 6 6 6 6 6 6 6 6 6 6 6 6 6 6 6 6 6 6 6 6 6 6 6 6 6 6 6 6 6 6 6 6 6 6 6 6 6 6 6 6 6 6 6 6 6 6 6 6 6 6 6 6 6 6 6 6 6 6 6 6 6 6 6
</DataArray>
      </Cells>
      <PointData>
        <DataArray type="Float64" Name="φ₁" NumberOfComponents="1" format="ascii">
 -1.235843209441163e-6 2.5087865144677604e-6 1.2358619726573077e-6 -2.5087569570550826e-6 -1.5001710106248216e-6 -5.403000571095577e-6 -3.0226661993999395e-6 2.1402875229249166e-7 3.519613896175738e-6 4.214692560881083e-6 1.3474096362843827e-6 4.7560953824898346e-6 3.98448384692406e-6 3.948151146822493e-6 4.113110007239501e-6 3.7058845344088827e-6 6.867096784002108e-7 -9.293581776672913e-7 1.500181944130698e-6 5.403022926245881e-6 3.022678783216055e-6 -2.140132185716467e-7 -3.5195886593041634e-6 -4.214678972850175e-6 -1.3473823393717708e-6 -4.756080639370545e-6 -3.98447143876039e-6 -3.9481418295824355e-6 -4.1130714116544975e-6 -3.705884195400051e-6 -6.866956342521694e-7 9.293633382541643e-7 1.3366067036475838e-5 5.9828252023280904e-5 0.00011386918698266351 0.00013807318185209098 0.00011476953406137677 5.958023296785496e-5 1.147457934714516e-5 1.9990490014522055e-5 0.00011447652826933899 0.00022488113408726312 0.0002733791743131092 0.0002261478816723821 0.00011598599117997728 2.1126998593330063e-5 1.5582300744504174e-5 9.084859576221572e-5 0.0001776190407937803 0.000214141962902717 0.00017609922509653005 9.069821819888143e-5 1.7567662834845245e-5 -1.604437650327694e-6 -3.440017988061701e-7 6.998907232225294e-7 7.633239441751857e-12 -6.998724435497261e-7 3.440166513151961e-7 1.6044544682480867e-6 -1.7567646673042883e-5 -9.06982070662976e-5 -0.00017609920992406544 -0.00021414194257520034 -0.00017761902571212094 -9.084857258359051e-5 -1.5582292368356678e-5 -2.1126988454546587e-5 -0.00011598597871125328 -0.0002261478697840259 -0.0002733791564606725 -0.0002248811167388402 -0.00011447651497954373 -1.9990473919164698e-5 -1.147456328943209e-5 -5.958022510288927e-5 -0.00011476951676596379 -0.00013807316174617267 -0.00011386916926538664 -5.982824714378413e-5 -1.3366051254906224e-5
</DataArray>
        <DataArray type="Float64" Name="φ₂" NumberOfComponents="1" format="ascii">
 -1.235874987614608e-6 -2.508770195000526e-6 1.2358534179070493e-6 2.508768490052248e-6 9.293798572532659e-7 -6.8671291345942e-7 -3.705878914510037e-6 -4.11309338921336e-6 -3.948156620081742e-6 -3.984469045678185e-6 -4.756090958149456e-6 -1.3474009944664795e-6 -4.2146638956586686e-6 -3.5196022801011924e-6 -2.140221231554089e-7 3.0226654225452944e-6 5.403020539200143e-6 1.5001739370151492e-6 -9.293717250921107e-7 6.867118063982525e-7 3.7058723158585433e-6 4.113091442676019e-6 3.9481448912774e-6 3.984459532679299e-6 4.756100885743728e-6 1.347399273330856e-6 4.214657780403166e-6 3.5196070045166136e-6 2.1401891627429004e-7 -3.022654706495733e-6 -5.403032401067636e-6 -1.5001866763025676e-6 1.3366055161679271e-5 1.9990480382168092e-5 1.5582286873354286e-5 -1.6044499100868868e-6 -1.7567655571137137e-5 -2.1126994943141686e-5 -1.1474570373565958e-5 5.98282579951748e-5 0.00011447652520514647 9.084858814185679e-5 -3.440049661151248e-7 -9.069821241671837e-5 -0.00011598599197694553 -5.958024319975483e-5 0.00011386917687571536 0.00022488112397550233 0.00017761903170419166 6.998749841055374e-7 -0.00017609921898018987 -0.00022614788202626366 -0.00011476952540316478 0.00013807316512331346 0.00027337916123887146 0.00021414194970489916 2.764778338718403e-12 -0.00021414195291712037 -0.0002733791653593447 -0.00013807317439047017 0.00011476952060826515 0.00022614787608324263 0.0001760992183368546 -6.998818578272563e-7 -0.0001776190321097407 -0.00022488113302643876 -0.0001138691814093488 5.9580234741283e-5 0.0001159859891129021 9.069820993529089e-5 3.44009064368124e-7 -9.084858782609273e-5 -0.00011447651595863589 -5.982825058460753e-5 1.147457495471488e-5 2.1126999396785754e-5 1.7567659390558275e-5 1.6044498646119344e-6 -1.5582296880178333e-5 -1.9990482662983945e-5 -1.3366058967995163e-5
</DataArray>
        <DataArray type="Float64" Name="q₁" NumberOfComponents="1" format="ascii">
 884.8304403997296 -282.56297278515245 -884.8279621595897 282.56336134360856 -924.3849113592619 -4615.417510795038 -2347.8486404380283 -329.61859001684246 2918.2140930830865 3886.038660505224 1300.218396449677 2248.2431595943463 12327.540687242066 25503.034115210437 31541.356837947125 26479.461532361118 13112.147523208529 1745.4188806126817 924.3828219238266 4615.419248913579 2347.8479206477996 329.61947298792103 -2918.2113286882563 -3886.0432011804132 -1300.214455068153 -2248.243393501863 -12327.539823226107 -25503.038886121256 -31541.34874853351 -26479.468269017572 -13112.14298418376 -1745.422096123998 541.0144339091905 4168.732355693197 7995.019446938217 7688.317941995676 3955.6927355859566 -504.21247611330796 -2527.899595449327 -5674.559811650859 3893.855113013573 17255.374938270685 23043.840163664125 17705.83422082412 4359.922724118659 -5285.513203558637 -3920.9556353593807 3379.3488804039166 13033.263559818219 17205.04519353646 13596.452596842866 3993.7019074617992 -3001.7517665601495 -1023.4130975111066 -881.5804171931569 -732.1163054365572 -0.0006152044463664054 732.117182908448 881.5797989265632 1023.412473083302 3001.7540244728348 -3993.704121214134 -13596.451425821357 -17205.044510179836 -13033.264934896895 -3379.3455771951185 3920.9526824391414 5285.510961753656 -4359.919987928856 -17705.83729969314 -23043.83903889942 -17255.37535285275 -3893.8556019175758 5674.5615830224815 2527.9000550788733 504.2099620795029 -3955.688841716542 -7688.321127579432 -7995.016770466397 -4168.734900259335 -541.013320070285
</DataArray>
        <DataArray type="Float64" Name="q₂" NumberOfComponents="1" format="ascii">
 884.8205231359642 282.56727896265784 -884.8271984131927 -282.56989505810947 -1745.4112426620954 -13112.152622175894 -26479.46398714375 -31541.350130511863 -25503.04145087915 -12327.533862453089 -2248.2494008937233 -1300.2261214075756 -3886.0287492735333 -2918.220610382208 329.62217591632816 2347.843642725214 4615.422266769422 924.3833299937144 1745.4165504445646 13112.149980159313 26479.462739408955 31541.35297947593 25503.039404396717 12327.53173778593 2248.2534826100455 1300.225371617093 3886.025791806988 2918.2223408640384 -329.62272167345236 -2347.8387597584156 -4615.424030103662 -924.3845928219074 541.0130580482853 -5674.561407286971 -3920.9569877774325 -1023.414630462705 3001.7539926357945 5285.514410058603 2527.89654664994 4168.737369744709 3893.8557589806633 3379.3481426647536 -881.5777158557869 -3993.704125427219 -4359.920793093347 504.2111348146654 7995.016273511347 17255.375301443124 13033.264622411125 -732.1195843428675 -13596.45026580525 -17705.838202325664 -3955.6888644400206 7688.3193500993475 23043.838993450194 17205.044483620775 0.0017850676191879843 -17205.045947655606 -23043.838212456234 -7688.320428662181 3955.6915917392207 17705.83619983628 13596.452488361994 732.116124709431 -13033.26250302084 -17255.37733136014 -7995.017361332575 -504.21327253856197 4359.922419036512 3993.701673705689 881.5803016258706 -3379.349165128977 -3893.8524251676936 -4168.735318063285 -2527.895896744775 -5285.513803694643 -3001.752511492709 1023.4140741060633 3920.9543788556175 5674.5601836799115 -541.0136765190443
</DataArray>
        <DataArray type="Float64" Name="φ̄₁" NumberOfComponents="1" format="ascii">
 0.0 -0.0 0.0 -0.0 0.0 0.0 0.0 0.0 -0.0 -0.0 -0.0 -0.0 -0.0 -0.0 -0.0 -0.0 -0.0 -0.0 0.0 0.0 0.0 0.0 -0.0 -0.0 -0.0 0.0 0.0 0.0 0.0 0.0 0.0 0.0 1.1739553883757543e-5 5.914270877875105e-5 0.00011551310308330481 0.00014019012451194594 0.0001155131030827355 5.914270877849462e-5 1.1739553883842473e-5 2.2999942302849835e-5 0.0001158714294439183 0.00022631138563224303 0.00027465820312508267 0.00022631138563121043 0.00011587142944336869 2.2999942302945577e-5 1.7968704924143558e-5 9.052455425310816e-5 0.00017680577002501815 0.0002145767211910242 0.00017680577002379694 9.052455425215149e-5 1.7968704924016855e-5 1.4509364690088607e-16 3.8407692553778885e-16 7.271910201083238e-17 -7.340048707726865e-16 -1.2823218553588437e-15 -1.0032563159153474e-15 -2.679978893213157e-16 -1.7968704923931847e-5 -9.052455425240768e-5 -0.00017680577002448204 -0.00021457672119154785 -0.00017680577002515178 -9.052455425318092e-5 -1.796870492423163e-5 -2.299994230270124e-5 -0.00011587142944325403 -0.00022631138563141087 -0.00027465820312505703 -0.0002263113856318879 -0.00011587142944372272 -2.299994230287315e-5 -1.1739553883685049e-5 -5.9142708778441934e-5 -0.00011551310308304124 -0.00014019012451236033 -0.00011551310308359555 -5.914270877893224e-5 -1.1739553883818472e-5
</DataArray>
        <DataArray type="Float64" Name="φ̄₂" NumberOfComponents="1" format="ascii">
 0.0 -0.0 0.0 -0.0 0.0 0.0 0.0 0.0 0.0 0.0 0.0 -0.0 -0.0 -0.0 -0.0 0.0 0.0 0.0 -0.0 -0.0 -0.0 -0.0 -0.0 -0.0 -0.0 -0.0 -0.0 -0.0 -0.0 0.0 0.0 0.0 1.1739553883694885e-5 2.2999942302710546e-5 1.7968704923875685e-5 -2.6799788931983954e-16 -1.7968704924175098e-5 -2.2999942302854873e-5 -1.1739553883836805e-5 5.9142708778416916e-5 0.00011587142944328887 9.05245542521453e-5 -1.003256315915906e-15 -9.052455425328775e-5 -0.00011587142944393156 -5.914270877907562e-5 0.00011551310308284608 0.00022631138563145533 0.00017680577002401036 -1.281964513335927e-15 -0.00017680577002540906 -0.00022631138563224563 -0.0001155131030837922 0.0001401901245119459 0.00027465820312508256 0.0002145767211910243 -7.340048707726865e-16 -0.00021457672119154785 -0.00027465820312505714 -0.00014019012451236062 0.00011551310308310793 0.0002263113856318855 0.00017680577002476082 7.27191020107356e-17 -0.00017680577002426867 -0.00022631138563116614 -0.00011551310308293061 5.9142708778607485e-5 0.00011587142944370925 9.052455425300145e-5 3.8407692553757497e-16 -9.052455425241355e-5 -0.00011587142944333388 -5.914270877851976e-5 1.1739553883739227e-5 2.2999942302867958e-5 1.796870492420008e-5 1.4507548863287775e-16 -1.7968704924073112e-5 -2.2999942302936327e-5 -1.1739553883832646e-5
</DataArray>
        <DataArray type="Float64" Name="q̄₁" NumberOfComponents="1" format="ascii">
 -0.0 0.0 -0.0 0.0 -0.0 -0.0 -0.0 -0.0 -0.0 -0.0 -0.0 2616.8823242065355 13183.593749937863 25749.206542890148 31249.999999999985 25749.20654305025 13183.593750069544 2616.8823242365006 -0.0 -0.0 -0.0 -0.0 -0.0 -0.0 -0.0 -2616.882324245603 -13183.593749963393 -25749.206542868716 -31249.999999999996 -25749.20654309736 -13183.59375010974 -2616.88232424676 -2483.9937686867493 296.11587526745797 3979.05707363164 5561.828613311626 3979.057073610097 296.1158752588751 -2483.993768694911 -4082.202911364694 4531.860351619441 15513.896942205856 20263.671875007272 15513.89694210198 4531.860351558909 -4082.2029113670023 -3204.554319387849 3463.2682800669877 11969.357728993135 15647.888183565012 11969.357728891808 3463.2682800114053 -3204.5543193481885 -2.6011273891056672e-8 1.4333749031521033e-8 4.864273046863067e-9 -5.283794235477756e-8 -8.561632847988963e-8 -3.745929347971387e-8 4.804185207189803e-8 3204.5543193671947 -3463.268280021453 -11969.35772894573 -15647.88818360442 -11969.357728995294 -3463.268280063738 3204.554319389749 4082.2029113808694 -4531.8603515491 -15513.89694212247 -20263.671875005028 -15513.896942170823 -4531.860351599346 4082.2029113643257 2483.993768698372 -296.115875256242 -3979.05707364231 -5561.828613366979 -3979.0570736816303 -296.11587529024047 2483.993768696641
</DataArray>
        <DataArray type="Float64" Name="q̄₂" NumberOfComponents="1" format="ascii">
 -0.0 0.0 -0.0 0.0 -2616.8823242065355 -13183.593749937863 -25749.206542890148 -31249.999999999985 -25749.20654305025 -13183.593750069544 -2616.8823242365006 -0.0 -0.0 -0.0 -0.0 -0.0 -0.0 -0.0 2616.882324245603 13183.593749963393 25749.206542868716 31249.999999999996 25749.20654309736 13183.59375010974 2616.88232424676 -0.0 -0.0 -0.0 -0.0 -0.0 -0.0 -0.0 -2483.993768699535 -4082.202911382384 -3204.554319357307 4.804185207199203e-8 3204.5543193933995 4082.2029113655194 2483.993768696071 296.11587525378945 4531.860351550959 3463.268280010799 -3.7459293479768556e-8 -3463.268280074274 -4531.860351620133 -296.1158752996101 3979.0570736172413 15513.896942126154 11969.357728912679 -8.560961997911278e-8 -11969.357729020468 -15513.896942206116 -3979.0570736943 5561.828613311625 20263.67187500726 15647.888183565028 -5.283794235477756e-8 -15647.888183604417 -20263.671875005035 -5561.828613367043 3979.057073618921 15513.896942170564 11969.35772896794 4.864273046853674e-9 -11969.357728924859 -15513.896942098305 -3979.0570736351633 296.11587525806436 4531.860351598627 3463.2682800564485 1.4333749031500105e-8 -3463.2682800220305 -4531.860351557049 -296.1158752613855 -2483.993768687324 -4082.2029113635062 -3204.5543193841936 -2.600714714648685e-8 3204.554319358072 4082.2029113654758 2483.9937686937465
</DataArray>
      </PointData>
    </Piece>
  </UnstructuredGrid>
</VTKFile>
