<?xml version="1.0" encoding="utf-8"?>
<VTKFile type="UnstructuredGrid" version="1.0" byte_order="LittleEndian" header_type="UInt64">
  <UnstructuredGrid>
    <Piece NumberOfPoints="340" NumberOfCells="614">
      <Points>
        <DataArray type="Float64" Name="Points" NumberOfComponents="3" format="ascii">
 0.0 0.0 0.9998891190245945 1.0 0.0 1.9998532152110438 1.0 1.0 2.99971782423673 0.0 1.0 1.9998485407523208 0.06249999999987327 0.0 1.062680879903557 0.1249999999997738 0.0 1.1254875404390308 0.1874999999995943 0.0 1.1880047620927763 0.2499999999994121 0.0 1.2506085071346655 0.3124999999992298 0.0 1.313290865515475 0.3749999999990476 0.0 1.3757085574230317 0.4374999999988654 0.0 1.4380589768452525 0.499999999998694 0.0 1.5006051172696897 0.5624999999988478 0.0 1.5631953285396696 0.6249999999990125 0.0 1.6256415959245738 0.687499999999177 0.0 1.688260497042179 0.7499999999993416 0.0 1.7509921711525402 0.8124999999995062 0.0 1.8134606523163201 0.8749999999996708 0.0 1.8755335083467761 0.9374999999998354 0.0 1.9376710074210517 1.0 0.06249999999987327 2.0627006382458206 1.0 0.1249999999997738 2.1255420400714535 1.0 0.1874999999995943 2.188107629627824 1.0 0.2499999999994121 2.2507924287910948 1.0 0.3124999999992298 2.3134754121011767 1.0 0.3749999999990476 2.375762799459867 1.0 0.4374999999988654 2.438034768675172 1.0 0.499999999998694 2.500713336914132 1.0 0.5624999999988478 2.5633796486145157 1.0 0.6249999999990125 2.6256723515012768 1.0 0.687499999999177 2.6882326680683426 1.0 0.7499999999993416 2.7508709623208123 1.0 0.8124999999995062 2.813536777925963 1.0 0.8749999999996708 2.8760857113257132 1.0 0.9374999999998354 2.938208488687708 0.9374999999997397 1.0 2.938335385887347 0.8749999999995011 1.0 2.875684664496787 0.812499999999913 1.0 2.8129860982080293 0.7500000000003465 1.0 2.7507081489328216 0.68750000000078 1.0 2.6884674997428006 0.6250000000012137 1.0 2.6258689945165177 0.5625000000016472 1.0 2.563111822195131 0.5000000000020591 1.0 2.5003769415045376 0.4375000000018207 1.0 2.4381435690840902 0.3750000000015605 1.0 2.3759331110550743 0.3125000000013005 1.0 2.3133832527294658 0.2500000000010404 1.0 2.250950647952797 0.1875000000007803 1.0 2.1884303076000364 0.1250000000005203 1.0 2.12553018923141 0.06250000000026013 1.0 2.0626660696404984 0.0 0.9374999999997397 1.9377061501950745 0.0 0.8749999999995011 1.8755270501447663 0.0 0.812499999999913 1.8131471018751855 0.0 0.7500000000003465 1.7507396943369204 0.0 0.68750000000078 1.6884149478780488 0.0 0.6250000000012137 1.6259243588989336 0.0 0.5625000000016472 1.5632499351213927 0.0 0.5000000000020591 1.5007476805218232 0.0 0.4375000000018207 1.4384600553813536 0.0 0.3750000000015605 1.3756851044781992 0.0 0.3125000000013005 1.3132327553728471 0.0 0.2500000000010404 1.250918667202241 0.0 0.1875000000007803 1.1883471735472022 0.0 0.1250000000005203 1.1254624772830832 0.0 0.06250000000026013 1.0626589732935985 0.9540129138381733 0.9554132882096409 2.9160156390848035 0.9458186567110763 0.9058124993545486 2.8660532396989673 0.4995322282144962 0.3530373305116182 1.984643536876876 0.4796947503143915 0.4195464397192155 2.038658672590558 0.4289659112502381 0.3703934119341416 1.9315836943407168 0.5556674479558171 0.4148441769121896 2.10826715977327 0.3484337243893381 0.9442980470307648 2.324387109974039 0.3036141656213424 0.8859997514210144 2.2457754922830855 0.3618649364358981 0.8747345226774258 2.3009563808893376 0.3103388921437942 0.8243985134027599 2.213665995590131 0.9440762383526892 0.6515971346203796 2.62685877832353 0.8856607826210046 0.6964312551994382 2.6373921325118546 0.8659631982782574 0.6258567162217606 2.5595389264350192 0.8237209852033596 0.6897560426901562 2.5909296777596995 0.6516135245785135 0.05600891000395106 1.739674302154917 0.6965136092750744 0.1144764140348112 1.867562594908534 0.6276276694433734 0.131199128424304 1.826302220384671 0.6897285261946559 0.1764961704861385 1.9451778991047974 0.7970452961867076 0.9095182708817022 2.743426201635658 0.7778037121495709 0.9488702116560174 2.750095342536197 0.7534017041533525 0.8879179235209713 2.6905762812885263 0.720796028624462 0.9468843636240857 2.6948570406616037 0.7057880650157399 0.8976450635297538 2.6527094281054957 0.9096764869447755 0.2037495689488837 2.1516826952515062 0.9490896508465597 0.2233194699848563 2.196791084634241 0.8872452127072535 0.2484741744118257 2.186896157646176 0.9468833751835618 0.279204727330287 2.2540803872691213 0.8940427408084156 0.3036435854380718 2.2502694074629113 0.09032188033856055 0.7963071600105689 1.9248899713853183 0.05091504001761799 0.7767567985352825 1.852040973559743 0.1127536496635177 0.7517545930121805 1.9157091839141558 0.0531470474591681 0.7209428958763805 1.8021116424008732 0.1059519292397888 0.6968125601282935 1.855364922317565 0.2036948030463718 0.09032381048480233 1.3308876442409274 0.2232495317285559 0.0509245270674497 1.297677368920365 0.2482783334612842 0.112805057784166 1.4107039795649128 0.2790587400044852 0.05314865591437173 1.3594106036468616 0.303310648609621 0.1061189497521519 1.4608653160785332 0.8959308066910907 0.9406118954430608 2.853378966768527 0.8938301791839279 0.885816964962131 2.8082377302294605 0.847070009992687 0.896703495670666 2.778174875508773 0.8330792439326432 0.9489007119093452 2.8019040814405676 0.06332451751218007 0.1588262463436671 1.2459038304342223 0.114400220834231 0.2072660733005935 1.366797686177855 0.05673401492882871 0.221713374048182 1.3041625398081245 0.09633592837128266 0.09749106702155712 1.2174465829471706 0.136764157415852 0.1543083165663368 1.3340001214794748 0.1588352405436785 0.936685224452867 2.120348027406931 0.20730842035607 0.8856524982144284 2.139646999098475 0.2217397618778197 0.9433014875379535 2.1917560369222677 0.09749106702156361 0.9036640716285367 2.025903803616972 0.1543083165663411 0.8632358425841528 2.062091708770232 0.8411778087676715 0.0633319012599721 1.929331959453092 0.792763692789281 0.1144505356931593 1.9539203967316057 0.7783029322210929 0.05675205204536737 1.8617836584773533 0.9025089329785919 0.09633592837128269 2.0235999083366387 0.8456916834338974 0.1367641574158532 2.027006875967448 0.9311380405532663 0.8405328475129524 2.797203231199183 0.8844550139331883 0.7927818750505282 2.7228322605816824 0.9431621770921876 0.7781047011804797 2.7469329651201067 0.8598851511635245 0.8405718457930426 2.745064655179192 0.09885430803860264 0.8439183043661819 1.9778743113983455 0.05551474889910517 0.8697345943060519 1.9446154552525603 0.901145559188245 0.1560949386311557 2.092334678263999 0.9444852830324362 0.1302661144921609 2.094107022951445 0.1560821394421001 0.09885474440653726 1.2886312113980143 0.1302654056936114 0.05551474889910278 1.2042341599082105 0.04073947918922492 0.9075400460137077 1.9599852720380149 0.04993902062155739 0.9511890482808679 2.0094346056924968 0.09245995398593074 0.04073947918922305 1.1443216121612825 0.04881127645113362 0.04993872081488871 1.1066277411335392 0.9592605270488337 0.09246009700405758 2.0634269690978453 0.9500614153705071 0.04881154662215065 2.007177285014681 0.9507328302437674 0.1709883492191352 2.1422014703421457 0.04926766264446162 0.8290361423123049 1.8987789516198013 0.1709653138601881 0.04926963822135808 1.239824721152244 0.04157177634971507 0.09890177867829197 1.1523066688914398 0.09890357751829566 0.9584301720432226 2.0697876350401208 0.9010990321957818 0.0415732543576904 1.9551229158715024 0.6331994824067367 0.5163645877785228 2.283610437446356 0.5741058620823188 0.4849287359376812 2.19908597562343 0.6339066748018594 0.4448127304166246 2.211698217611648 0.5803081154526065 0.5554105733225275 2.2739143067051626 0.3645601556940457 0.4935706402761902 1.9923190096966987 0.4165579632259991 0.5134005066788054 2.0691616371045685 0.3715614426355371 0.5597412728001457 2.064462172959658 0.4015551347437116 0.4387554334604925 1.976664385666079 0.4843714358735818 0.6341491678948008 2.2523917430348788 0.5117171627030859 0.5670376310063057 2.219562494689879 0.5561629897309829 0.6275503456092131 2.316983270747778 0.439081205878495 0.5834715850420811 2.160361025429263 0.4083289606055011 0.929199239389176 2.378907163362853 0.426859210389647 0.8690272316360229 2.3652792107750775 0.4759838584200369 0.9235633970483892 2.444241159912141 0.9288246900522868 0.5917293403512813 2.561376224210169 0.8710183516666348 0.557541838197036 2.497392575727218 0.9303026065354069 0.5358578834814671 2.5071293768185097 0.5916591809001265 0.07135500965771054 1.704705660062999 0.5609385837146948 0.1266017660536639 1.7552735567084803 0.5357051658935953 0.06990124801011076 1.6473740120409623 0.1451987149655075 0.802649382798227 2.0021918268447423 0.3898900373955501 0.3173550159161914 1.8281039107959338 0.3578320364168985 0.3772423709286388 1.8610087763822734 0.3490159688384519 0.2572994491234004 1.7101838121422477 0.4202439552097213 0.2603670700250064 1.7917291907035284 0.3947806084882685 0.1897425288601874 1.6739531727213897 0.3231731776597769 0.6220867861847701 2.066746261668145 0.393590726820295 0.6365271407692397 2.1590991099233934 0.8026493827982271 0.8548012850347143 2.7101260000504874 0.2568255166257933 0.6566167151267118 2.017926185657748 0.2670889023068816 0.5883557947223944 1.9684606001370772 0.1926068343362755 0.6085066623000651 1.8920247881331003 0.6792313539628495 0.3958402868896192 2.19770060423219 0.6162883427122575 0.3788337001113473 2.124901629658133 0.7356971833120711 0.3489123889627602 2.191261771497078 0.7370495256007155 0.4285783524895035 2.2785073869909747 0.854801285034726 0.1973506172018774 2.1064777287759795 0.8087824443914929 0.3963586806456835 2.2960935043793627 0.6066245291838283 0.6856565605152456 2.412840998696593 0.6317261691974395 0.6176122795524345 2.3771312312204476 0.6514165977325109 0.7467336294531871 2.5013346468564226 0.5749556942213093 0.748099604545935 2.4325251063037783 0.6041359145151312 0.8083764355754607 2.5024640233064988 0.6008547615973187 0.3163460743139019 2.0393422918371207 0.545988143723151 0.3064755615149686 1.9761983178950382 0.599555
[...]
      <PointData>
        <DataArray type="Float64" Name="w" NumberOfComponents="1" format="ascii">
 0.9998891190245945 1.9998532152110438 2.99971782423673 1.9998485407523208 1.062680879903557 1.1254875404390308 1.1880047620927763 1.2506085071346655 1.313290865515475 1.3757085574230317 1.4380589768452525 1.5006051172696897 1.5631953285396696 1.6256415959245738 1.688260497042179 1.7509921711525402 1.8134606523163201 1.8755335083467761 1.9376710074210517 2.0627006382458206 2.1255420400714535 2.188107629627824 2.2507924287910948 2.3134754121011767 2.375762799459867 2.438034768675172 2.500713336914132 2.5633796486145157 2.6256723515012768 2.6882326680683426 2.7508709623208123 2.813536777925963 2.8760857113257132 2.938208488687708 2.938335385887347 2.875684664496787 2.8129860982080293 2.7507081489328216 2.6884674997428006 2.6258689945165177 2.563111822195131 2.5003769415045376 2.4381435690840902 2.3759331110550743 2.3133832527294658 2.250950647952797 2.1884303076000364 2.12553018923141 2.0626660696404984 1.9377061501950745 1.8755270501447663 1.8131471018751855 1.7507396943369204 1.6884149478780488 1.6259243588989336 1.5632499351213927 1.5007476805218232 1.4384600553813536 1.3756851044781992 1.3132327553728471 1.250918667202241 1.1883471735472022 1.1254624772830832 1.0626589732935985 2.9160156390848035 2.8660532396989673 1.984643536876876 2.038658672590558 1.9315836943407168 2.10826715977327 2.324387109974039 2.2457754922830855 2.3009563808893376 2.213665995590131 2.62685877832353 2.6373921325118546 2.5595389264350192 2.5909296777596995 1.739674302154917 1.867562594908534 1.826302220384671 1.9451778991047974 2.743426201635658 2.750095342536197 2.6905762812885263 2.6948570406616037 2.6527094281054957 2.1516826952515062 2.196791084634241 2.186896157646176 2.2540803872691213 2.2502694074629113 1.9248899713853183 1.852040973559743 1.9157091839141558 1.8021116424008732 1.855364922317565 1.3308876442409274 1.297677368920365 1.4107039795649128 1.3594106036468616 1.4608653160785332 2.853378966768527 2.8082377302294605 2.778174875508773 2.8019040814405676 1.2459038304342223 1.366797686177855 1.3041625398081245 1.2174465829471706 1.3340001214794748 2.120348027406931 2.139646999098475 2.1917560369222677 2.025903803616972 2.062091708770232 1.929331959453092 1.9539203967316057 1.8617836584773533 2.0235999083366387 2.027006875967448 2.797203231199183 2.7228322605816824 2.7469329651201067 2.745064655179192 1.9778743113983455 1.9446154552525603 2.092334678263999 2.094107022951445 1.2886312113980143 1.2042341599082105 1.9599852720380149 2.0094346056924968 1.1443216121612825 1.1066277411335392 2.0634269690978453 2.007177285014681 2.1422014703421457 1.8987789516198013 1.239824721152244 1.1523066688914398 2.0697876350401208 1.9551229158715024 2.283610437446356 2.19908597562343 2.211698217611648 2.2739143067051626 1.9923190096966987 2.0691616371045685 2.064462172959658 1.976664385666079 2.2523917430348788 2.219562494689879 2.316983270747778 2.160361025429263 2.378907163362853 2.3652792107750775 2.444241159912141 2.561376224210169 2.497392575727218 2.5071293768185097 1.704705660062999 1.7552735567084803 1.6473740120409623 2.0021918268447423 1.8281039107959338 1.8610087763822734 1.7101838121422477 1.7917291907035284 1.6739531727213897 2.066746261668145 2.1590991099233934 2.7101260000504874 2.017926185657748 1.9684606001370772 1.8920247881331003 2.19770060423219 2.124901629658133 2.191261771497078 2.2785073869909747 2.1064777287759795 2.2960935043793627 2.412840998696593 2.3771312312204476 2.5013346468564226 2.4325251063037783 2.5024640233064988 2.0393422918371207 1.9761983178950382 1.9702849164052136 1.3951615195823734 2.28402425546807 1.8824217938891086 1.3661684640060328 1.8831320791231356 2.3332398859741215 2.3670850578168263 2.392989325261623 2.2557338212801237 2.5376710457104172 2.4536670859422403 2.5148682038939754 1.5553689948708613 1.617939881247609 1.5246061314018586 2.6917679480192107 2.2732228516508024 2.223451912203743 2.2047114476159164 1.8016624621433805 1.4731503185463712 1.4024956996081133 1.4388041432906777 2.1673928263290563 2.1993484652693662 2.0874586983917727 2.654218354324354 2.693264477686954 2.6835519266546544 1.9642961189873371 1.893218142873969 2.0385075589235995 2.5806462168688653 2.5538340410603704 2.619022623235063 1.7579331503355238 1.9409820529938902 2.01523601570073 1.8480207381250122 1.9536235649647335 2.6354732286472498 2.648331009427436 1.4816804452374686 1.5850922883225473 1.5200174351702922 1.5945265751762014 2.3224455697558137 2.126917806942458 2.1269409954669793 2.174412941882789 1.4403299625613069 1.4900987291509538 1.4289236694426977 1.566933632621315 1.5556699403757617 2.111947042559678 2.60798752701176 2.0546103271618463 1.7088351657011474 2.3831950122130583 2.3722768361145157 2.3039522085347848 2.0726623370017787 2.1381462514193474 1.8334198575227392 1.9175635107363918 1.8495024959707436 2.457493451563967 1.5463915596026003 1.5938751395966921 1.6489149114360173 1.6981037636410952 2.208545953806047 2.252651324518181 2.2508763689977145 1.8994076292099837 2.3311581170026483 1.6624526007321447 2.3192128015621267 2.5484124114565265 2.3820307117711126 2.441082063669573 2.3777282459833784 2.4370975035221827 2.0355608368635676 1.7475368486230127 1.817232484931493 1.597404481034552 2.144246277912035 2.5770511264702125 1.5031145825602112 1.7332187852483578 1.6181276663313842 1.6921497524084033 1.596971857416382 1.55040950343917 1.6643146491014102 2.48643400923873 2.5220898283513113 2.4193059009834847 1.7790292687401819 2.1827026968845216 1.6602372474429972 2.00825782380269 1.9153212157252095 1.6538758643992475 2.13739179968744 2.3427745213089852 2.1636116343094334 2.0560510353457246 2.101080632738196 2.5327597834608153 2.100211430154704 2.0503298213841807 2.1213729708463482 1.6660034018551895 1.7533813165873142 2.332356591765937 2.580325624660741 2.3798244025434627 2.4290673843867685 1.4572435062636129 1.5081905852352526 2.490782765848617 1.839052944441554 2.4388816801598767 2.445021730570388 2.459180947271145 1.7496798298849248 1.953755357379833 1.7847598578802997 1.7633094851017355 1.8831935502862656 2.4858138347783503 1.806781331359629 1.8862030756536279 1.7647450577378692 1.8542296530649816 2.4143504198774206 2.533599786729444 1.8086660832599217 1.607928046355802 2.369212364207882 2.3523207785628606 2.3774827307380457 2.0924931543942566 2.0127815688402384 2.209275500269196 2.329394224491373 2.2471989151279392
</DataArray>
        <DataArray type="Float64" Name="φ₁" NumberOfComponents="1" format="ascii">
 1.7987500082324779 1.8832082558557228 2.201384135884531 2.1167624534618414 1.8045780765741875 1.818011172919009 1.8343741226754624 1.8507400446791227 1.8648289489506524 1.8777867725768074 1.8877260723584128 1.892396096039889 1.8959184008123549 1.8973944740164934 1.8961752078877299 1.8927403279249904 1.8885930711529877 1.885105444852998 1.8831780777155676 1.8823373160758565 1.8817249666310862 1.8851231200833973 1.8945554834103366 1.9102449107795685 1.931886736448409 1.9599315149770649 1.9918835960825336 2.0259957919992204 2.0618898244985524 2.0986074379410993 2.1329876258645943 2.16286279291225 2.1846162523021486 2.1975170108861493 2.1952810108289293 2.182377063691446 2.165549157248458 2.1492130609493367 2.1351779780511535 2.1221819969091644 2.112496339799522 2.107438781856067 2.104358704925486 2.1024160627349744 2.1037466332275003 2.107227884898564 2.111374698754202 2.1148621490775126 2.1167921315606506 2.1176375918299644 2.118255777786552 2.1148539085890525 2.105466653401303 2.0895195940108 2.067830545865318 2.041027028132991 2.008856476999887 1.9736638390586407 1.9375749989818583 1.9012518783119503 1.8669004809808334 1.8373193467428004 1.8154758945464038 1.8021807798795004 2.1989665422460902 2.193335856649531 1.9260206403690827 1.9574859045959419 1.9308114792706133 1.9579380402877078 2.117805123089343 2.120431844860875 2.123887771420831 2.1169260940818027 2.0810521435067364 2.109425194074276 2.069753354446089 2.1066877723272825 1.8820071376321006 1.8795701250213304 1.8754006984934928 1.8830818483097593 2.1788969006960963 2.173098521780285 2.1718507729880314 2.162488095924151 2.164805312709896 1.888139151738902 1.88994864484363 1.89639428259764 1.9013820588579737 1.9103676423881075 2.1118480091175473 2.11005545517749 2.103628222293231 2.0984744061138567 2.089763173467858 1.8212179283591272 1.827148037061239 1.8283959449943883 1.8374391839434443 1.8365096289666842 2.1933164621821106 2.186817462173337 2.184455614214794 2.1833717497070446 1.823682416176675 1.842966064249513 1.849757052283495 1.8093179835086868 1.8245929221235393 2.1166759240180903 2.1176126571942158 2.1158212001099237 2.1177659679633467 2.116847856249132 1.8832964400331194 1.8823663009376872 1.884140925352844 1.8822098127280416 1.8831315198143532 2.176090445342078 2.1570700390246427 2.1501344446464024 2.173622458298758 2.116342449144608 2.1179862256529227 1.883639496789485 1.8819945583481417 1.8153941007970207 1.8102687274893665 2.118283210690901 2.117195990849158 1.8057305151144862 1.8014466548092765 1.8816947495978025 1.8827778258568741 1.8837689100882657 2.1162112582907704 1.8175603689533832 1.8074314725494853 2.1165464541748724 1.8834262915465936 2.0119233826064233 1.9942300590284698 1.9746728167235292 2.03158029315372 1.9933531189380902 2.0047367548073463 2.027779444121214 1.964849720535021 2.0672726682965887 2.0353406259159383 2.067605169553082 2.0410769332442014 2.1237628121489482 2.1288728382316062 2.1310009789379807 2.0467320262122337 2.0298300939045473 2.0142036255866382 1.8760492505096609 1.8700020119448588 1.8715819732362817 2.111577902585659 1.9036197998601418 1.9314408913277263 1.87538113165249 1.8821878515469823 1.8584853584858996 2.0566557337619487 2.064605295149742 2.172841400440889 2.071379773677865 2.0417342107825216 2.053099935408688 1.951508666886176 1.9426441904621425 1.9307758465659535 1.9663013208401503 1.888402779520006 1.9490115620349486 2.0975600607647604 2.065613728231008 2.1261902809434003 2.120289618415013 2.1408299215224567 1.915741869544449 1.9089297193776629 1.896286805001344 1.8271382005532764 2.119767269516082 1.885686267227549 1.8820814450399155 1.8818923384839592 1.9890260726571038 1.9836946940298947 2.0066823415531907 2.115794833190429 2.1005652908157932 2.058463147729496 2.0699047532186783 1.844566894337813 1.8541283336415906 1.840815058043759 2.1192910717777664 1.9258194250324803 1.9238476031127338 1.909258743830419 1.8841552839001292 1.8652640675567627 1.8665721732717067 1.8424305380719161 2.1170073895159103 2.118325785431492 2.113843456171939 2.1346504205279864 2.1359913581829386 2.15753949582218 1.8830371447064695 1.881643734592309 1.8861398306093842 2.155847170868381 2.145556311867 2.1594859042444927 2.0809580436151256 2.0909524902423486 2.1039829297335197 2.0722298948820415 2.076664883148454 2.1539906958944446 2.159723913568035 1.8939615642901733 1.9150411790660682 1.9246997775261787 1.9486122886092745 1.9249894991898135 1.8960139208205624 1.9793180996040682 2.007465263297668 1.8478252104734008 1.8403121354895344 1.9141843550809816 1.890978393185048 1.8651120501465168 2.107426861083631 2.1352120951105387 1.8927006352805107 2.0517307440233212 2.0208096811093714 2.039446400531262 1.996065222700267 1.9851611385661467 2.0150404102671056 1.9625396327635134 1.9879667353579378 1.9891352140497693 2.081164880833973 1.8532265914134023 1.8631850721365746 1.856309217611035 1.863056000810976 2.088613214115101 2.0872013543825583 2.104421299156531 1.9631232804351137 2.1099039098686028 1.9227341163135547 2.1179324309830063 2.1471584121573377 1.9534392773541622 1.9800252525989395 1.9669598794498988 1.9961117815043077 2.0927193532789485 1.9319929218202738 1.938510568370034 1.8592186377421187 1.9075541551460415 2.141826738772045 1.953937165254877 2.001847168638509 1.9814350164934222 1.9719973473787102 2.0239235475538857 1.9936017014095775 2.015200337547843 2.1392760268548083 2.1326841357059423 2.134520468143105 2.0327780020682686 2.106560975580755 1.9438885583235348 1.8939525088764304 1.8827411779804237 1.8975165031964643 2.0757334861772954 2.099085315323058 2.091513478230074 1.9339734684520828 2.0927613804046548 2.117852575017812 1.9078426192943896 1.9072421858052477 1.9258477883058245 1.88230167140307 1.9129234744217427 1.9433117315820312 2.1370527082285804 1.9411763555041697 1.9643322358992537 1.8628955732396095 1.868901617081715 2.0443119279695203 1.875394255653604 2.015840679708216 2.0359900917628675 2.099134709100888 1.9603543356158641 2.013085999816883 1.989670578337214 1.868517269933751 1.894457766519717 2.1424266877992153 1.8725101371809045 1.9067105571676115 1.8999705008294385 2.0178405141557874 2.1275320026009963 2.148648370041248 2.052934703681951 1.851374535565758 2.1246659921054594 2.125959872950153 2.097168372258829 2.0772590359992886 2.034633950941272 2.0670017330122596 2.0359934288146064 1.9712635107908156
</DataArray>
        <DataArray type="Float64" Name="φ₂" NumberOfComponents="1" format="ascii">
 1.7988458513614294 2.1168369694015357 2.2009003989222085 1.8831403326952143 1.8022853836822683 1.8150885948582645 1.8373511210079345 1.8671672624402622 1.9012297544558652 1.9371592438862448 1.974405315609424 2.0095061918720107 2.0404138532450284 2.0673279840465866 2.089599624140683 2.1054586778677162 2.114853373093122 2.1182680703346715 2.1176932302116227 2.1168768262550657 2.1149722691646673 2.111398549433031 2.1072205561481976 2.1042820432548237 2.102384524873806 2.1022054809640265 2.10732080155567 2.1141905248200668 2.1229234628725484 2.1345006185317863 2.1492655090203217 2.1661894905633354 2.1823407392789327 2.194756242299678 2.1974884702332598 2.1851716700821533 2.1626585592771197 2.1328642540856535 2.0987776504273863 2.0628068591381012 2.0256946480776943 1.990390554441548 1.9596704114596237 1.932792094331656 1.910393984176192 1.8945274941718784 1.8851395589119186 1.8817173253564334 1.8822878501272529 1.8831000593079241 1.8850056889995543 1.888586991700464 1.892752333347895 1.895969048159739 1.896791100049047 1.8966454711278464 1.8939481956175441 1.8870022746292492 1.8771755466510833 1.8654099878647301 1.8504593791646233 1.8337496008950598 1.8182277566676255 1.8048047070889266 2.1989817860075256 2.1943548738238277 1.9963893199153264 1.9870370233952075 1.958928305094661 2.026588266334444 1.9232050081951855 1.9107028728020765 1.9315815418208875 1.9151183143434567 2.150939836349963 2.1635905364809385 2.1529486539019222 2.1541108696257476 2.07682116657911 2.089452828286256 2.0640560211565764 2.0848392731516787 2.159034736452801 2.149709711243336 2.139109914520516 2.1205391196883703 2.1142380890645063 2.1174312154836823 2.1153620677397207 2.1184679800446884 2.1156886024255175 2.1201681970951105 1.8825493456028695 1.884604054630243 1.8815135616103897 1.8842158905640194 1.8798255717263421 1.841303262019701 1.8508640447698177 1.86171678264609 1.8793863233860886 1.8907204241084274 2.1913788160986556 2.1878403895390024 2.177347372475237 2.17338457749169 1.8137252345153334 1.8231853846277597 1.825747956380171 1.809273511560603 1.8209861915193883 1.8831256756186832 1.889214697491348 1.8897166094136038 1.8821522851880628 1.8840245495280068 2.116862459405754 2.110778863405506 2.1102823705308458 2.117829878016731 2.115963499124166 2.186275277462327 2.176726674761031 2.174123011086629 2.17764325288013 1.882590946914056 1.8833677472794548 2.11738979490513 2.1166102336474264 1.8234747206971709 1.8149442195357408 1.8832960736977764 1.8826911080561752 1.8061501839489038 1.8015311046039397 2.1166842014412075 2.1172889872313774 2.11578831223765 1.8841939570109811 1.8283365879763451 1.8066151317843935 1.88158768505197 2.1183952972781195 2.068329100848046 2.0380000959822038 2.0653500966485914 2.043731563442575 1.9311338593925604 1.9573018302986842 1.9373533382620243 1.9467582907275078 1.994995626123515 2.0081140978587393 2.0331414574013773 1.97079792685526 1.948275191291797 1.9600996393408143 1.981524232441833 2.144696559104096 2.1434819236653193 2.13651712862386 2.051692377476981 2.0342876277957997 2.0249607186961307 1.883593092462987 1.9371361011601913 1.9223387816423818 1.9143110623334778 1.953343914437963 1.9403142493672374 1.919200780609685 1.949815381702303 2.1603924215701484 1.8983130884390642 1.8975050819781625 1.8803738351473647 2.082483420190537 2.0550488673995524 2.099983950493263 2.104959802892235 2.116388131981955 2.1203862838165346 2.061072816962173 2.07232953458787 2.085978071585066 2.0439009920282434 2.059152284497226 2.047153810947292 2.020498921043274 2.0470348221109136 1.8396269879609415 1.9432499018527092 2.0152091099921456 1.8381280526709738 2.0344335186535196 2.1114263150086816 2.1255543634473097 2.1242366296965223 1.90213107331755 2.1345466584108195 2.1209784422134526 2.14101895618295 1.9182232178877279 1.9053774779232666 1.8839057578201843 2.1623208996242744 2.1220420656144348 2.1147729205144907 2.1177093470235455 2.097874204979219 1.8349939731404379 1.8294185488518475 1.8355686411211574 1.8992887489504378 1.896892491186672 1.8893718137806466 2.1650375727917606 2.17133288732595 2.164420853969692 2.100740306656082 2.1031369898264156 2.1106340092101705 2.083682487605005 2.093788726602726 2.1163132587179496 1.881788871048185 1.8823481942069815 1.8863418073666702 1.8769894101282847 1.885293331643339 2.088193147876608 2.142182457970294 1.8374104983004536 1.8475375664709042 1.8455202793933116 1.851430896668745 2.119839889434378 2.1136707281672797 2.012587886177383 2.010222316758054 1.9173988062924345 1.8578629845716912 1.847875811435029 1.8470768742215335 1.8549967466859862 1.8991316286221598 2.1453272163455535 2.100922000428137 1.8755139156911849 2.1125724949685507 2.093085167396239 2.0931677346581803 1.9765902840579508 1.9829999545893713 1.8909637699280497 1.906144752594213 1.8854613592037086 2.1060113282421535 1.9513877525108996 1.9887893501298048 1.967929816775475 2.0007055865899535 1.9501598063527312 1.9737727592959697 1.9522682998191547 1.9141602907388116 1.9901207949780424 1.859624155573363 1.968116795821865 2.0480193259817296 2.125598690683297 2.1299713632887385 2.130154706554304 2.136183293289897 1.8931761719180573 1.8785107994265688 1.898611676779086 1.8793911726366326 2.106821292686693 2.1184629535837827 1.8581803087400024 1.8650575193130916 1.8592932555005766 1.8600045283946365 1.8788687944736278 1.87135122695711 1.8673493949478863 2.0132657579400055 2.017071945663499 1.9929828397963931 1.870203931055428 1.9200031387219354 1.8564510180355684 2.077204597052539 2.059635476727047 1.8665652449580104 1.931759687746205 2.0129084666814583 1.928593438003966 2.0275964989714037 1.9075353278686211 2.117276092822555 2.0916370723538917 2.0693095215312134 2.0757012203676104 1.8823882235775016 1.8918139050636609 2.1259661345971854 2.0484788693875915 2.1155868715340196 2.118661164164701 1.9472640305505016 1.975054841362683 2.1414131131975678 2.0418414952538777 2.1348158918076177 2.1295640656605808 2.089612954337826 1.869796214781735 1.9051435571458704 1.8716533058960365 1.981054276253722 1.9889472383715332 2.030854204940321 2.0166614228769673 1.9670327841398974 1.9086524712638382 1.8791626562071229 2.016657401187665 2.055821787278955 1.8737938026745082 1.9452203892703641 1.9871805802565237 1.9698165702082926 2.037971794871189 1.9151036391491396 1.9137222289985674 1.9718312770803696 2.0720392587760923 2.0869978509430864
</DataArray>
        <DataArray type="Float64" Name="q₁" NumberOfComponents="1" format="ascii">